<?xml version="1.0" encoding="UTF-8"?>

<!-- generated on 05/04/23 16:34:26 by Eclipse SUMO sumo Version 1.8.0
-->

<configuration xmlns:xsi="http://www.w3.org/2001/XMLSchema-instance" xsi:noNamespaceSchemaLocation="http://sumo.dlr.de/xsd/sumoConfiguration.xsd">

    <input>
        <net-file value="../SiouxFalls.net.xml"/>
        <route-files value="SiouxFalls_049.rou.xml"/>
        <additional-files value="dua_dump_049.add.xml"/>
    </input>

    <output>
        <summary-output value="summary_049.xml"/>
        <tripinfo-output value="tripinfo_049.xml"/>
    </output>

    <time>
        <begin value="0.0"/>
        <end value="1500.0"/>
    </time>

    <processing>
        <route-steps value="100"/>
        <no-internal-links value="false"/>
        <time-to-teleport value="300"/>
        <time-to-teleport.highways value="0"/>
        <eager-insert value="false"/>
    </processing>

    <report>
        <verbose value="true"/>
        <no-warnings value="false"/>
        <log value="iteration_049.sumo.log"/>
        <no-step-log value="true"/>
    </report>

    <random_number>
        <random value="false"/>
    </random_number>

</configuration>
