<?xml version="1.0" encoding="UTF-8"?>

<!-- generated on 05/04/23 16:00:22 by Eclipse SUMO sumo Version 1.8.0
<configuration xmlns:xsi="http://www.w3.org/2001/XMLSchema-instance" xsi:noNamespaceSchemaLocation="http://sumo.dlr.de/xsd/sumoConfiguration.xsd">

    <input>
        <net-file value="20\../SiouxFalls.net.xml"/>
        <route-files value="20\SiouxFalls_020.rou.xml"/>
        <additional-files value="20\dua_dump_020.add.xml"/>
    </input>

    <output>
        <summary-output value="20\summary_020.xml"/>
        <tripinfo-output value="20\tripinfo_020.xml"/>
    </output>

    <time>
        <begin value="0.0"/>
        <end value="1500.0"/>
    </time>

    <processing>
        <route-steps value="100"/>
        <no-internal-links value="false"/>
        <time-to-teleport value="300"/>
        <time-to-teleport.highways value="0"/>
        <eager-insert value="false"/>
    </processing>

    <report>
        <verbose value="true"/>
        <no-warnings value="false"/>
        <log value="20\iteration_020.sumo.log"/>
        <no-step-log value="true"/>
    </report>

    <random_number>
        <random value="false"/>
    </random_number>

</configuration>
-->

<tripinfos xmlns:xsi="http://www.w3.org/2001/XMLSchema-instance" xsi:noNamespaceSchemaLocation="http://sumo.dlr.de/xsd/tripinfo_file.xsd">
    <tripinfo id="358070" depart="1.00" departLane="gneE14_1" departPos="5.10" departSpeed="11.21" departDelay="0.28" arrival="66.00" arrivalLane="gneE9_0" arrivalPos="14.85" arrivalSpeed="13.27" duration="65.00" routeLength="1382.19" waitingTime="1.00" waitingCount="1" stopTime="0.00" timeLoss="13.09" rerouteNo="0" devices="tripinfo_358070" vType="DEFAULT_VEHTYPE" speedFactor="1.02" vaporized=""/>
    <tripinfo id="307795" depart="33.00" departLane="gneE10_1" departPos="5.10" departSpeed="5.13" departDelay="28.59" arrival="92.00" arrivalLane="gneE13_0" arrivalPos="25.70" arrivalSpeed="10.49" duration="59.00" routeLength="1362.70" waitingTime="0.00" waitingCount="0" stopTime="0.00" timeLoss="10.06" rerouteNo="0" devices="tripinfo_307795" vType="DEFAULT_VEHTYPE" speedFactor="1.07" vaporized=""/>
    <tripinfo id="312949" depart="2.00" departLane="gneE12_0" departPos="5.10" departSpeed="10.08" departDelay="0.59" arrival="95.00" arrivalLane="gneE3_0" arrivalPos="21.26" arrivalSpeed="11.15" duration="93.00" routeLength="1591.21" waitingTime="25.00" waitingCount="1" stopTime="0.00" timeLoss="41.40" rerouteNo="0" devices="tripinfo_312949" vType="DEFAULT_VEHTYPE" speedFactor="1.16" vaporized=""/>
    <tripinfo id="314338" depart="1.00" departLane="gneE12_0" departPos="5.10" departSpeed="12.71" departDelay="0.59" arrival="96.00" arrivalLane="gneE15_1" arrivalPos="15.59" arrivalSpeed="11.32" duration="95.00" routeLength="1380.73" waitingTime="28.00" waitingCount="2" stopTime="0.00" timeLoss="45.21" rerouteNo="0" devices="tripinfo_314338" vType="DEFAULT_VEHTYPE" speedFactor="1.10" vaporized=""/>
    <tripinfo id="307162" depart="4.00" departLane="gneE10_1" departPos="5.10" departSpeed="1.28" departDelay="0.27" arrival="96.00" arrivalLane="gneE13_0" arrivalPos="25.70" arrivalSpeed="10.87" duration="92.00" routeLength="1362.70" waitingTime="24.00" waitingCount="1" stopTime="0.00" timeLoss="39.22" rerouteNo="0" devices="tripinfo_307162" vType="DEFAULT_VEHTYPE" speedFactor="0.99" vaporized=""/>
    <tripinfo id="280376" depart="60.00" departLane="gneE44_1" departPos="5.10" departSpeed="4.19" departDelay="53.81" arrival="97.00" arrivalLane="gneE45_0" arrivalPos="19.67" arrivalSpeed="9.75" duration="37.00" routeLength="441.27" waitingTime="2.00" waitingCount="2" stopTime="0.00" timeLoss="17.77" rerouteNo="0" devices="tripinfo_280376" vType="DEFAULT_VEHTYPE" speedFactor="1.01" vaporized=""/>
    <tripinfo id="92705" depart="3.00" departLane="gneE41_0" departPos="5.10" departSpeed="7.67" departDelay="1.78" arrival="98.00" arrivalLane="gneE43_0" arrivalPos="19.10" arrivalSpeed="11.53" duration="95.00" routeLength="1798.44" waitingTime="1.00" waitingCount="1" stopTime="0.00" timeLoss="27.82" rerouteNo="0" devices="tripinfo_92705" vType="DEFAULT_VEHTYPE" speedFactor="1.01" vaporized=""/>
    <tripinfo id="345590" depart="2.00" departLane="gneE14_1" departPos="5.10" departSpeed="7.66" departDelay="0.77" arrival="98.00" arrivalLane="gneE23_1" arrivalPos="22.86" arrivalSpeed="11.52" duration="96.00" routeLength="1368.27" waitingTime="29.00" waitingCount="2" stopTime="0.00" timeLoss="47.33" rerouteNo="0" devices="tripinfo_345590" vType="DEFAULT_VEHTYPE" speedFactor="1.10" vaporized=""/>
    <tripinfo id="191488" depart="1.00" departLane="gneE36_0" departPos="5.10" departSpeed="7.72" departDelay="0.61" arrival="99.00" arrivalLane="gneE30_0" arrivalPos="27.32" arrivalSpeed="13.26" duration="98.00" routeLength="1582.47" waitingTime="26.00" waitingCount="1" stopTime="0.00" timeLoss="36.98" rerouteNo="0" devices="tripinfo_191488" vType="DEFAULT_VEHTYPE" speedFactor="0.99" vaporized=""/>
    <tripinfo id="165830" depart="3.00" departLane="gneE29_1" departPos="5.10" departSpeed="4.35" departDelay="1.73" arrival="99.00" arrivalLane="gneE25_0" arrivalPos="16.65" arrivalSpeed="12.54" duration="96.00" routeLength="1391.10" waitingTime="30.00" waitingCount="3" stopTime="0.00" timeLoss="42.58" rerouteNo="0" devices="tripinfo_165830" vType="DEFAULT_VEHTYPE" speedFactor="0.99" vaporized=""/>
    <tripinfo id="307682" depart="35.00" departLane="gneE10_1" departPos="5.10" departSpeed="6.24" departDelay="30.32" arrival="99.00" arrivalLane="gneE13_0" arrivalPos="25.70" arrivalSpeed="12.22" duration="64.00" routeLength="1362.70" waitingTime="0.00" waitingCount="0" stopTime="0.00" timeLoss="8.72" rerouteNo="0" devices="tripinfo_307682" vType="DEFAULT_VEHTYPE" speedFactor="0.94" vaporized=""/>
    <tripinfo id="92911" depart="6.00" departLane="gneE41_0" departPos="5.10" departSpeed="4.60" departDelay="4.37" arrival="100.00" arrivalLane="gneE43_0" arrivalPos="19.10" arrivalSpeed="9.52" duration="94.00" routeLength="1798.44" waitingTime="0.00" waitingCount="0" stopTime="0.00" timeLoss="27.20" rerouteNo="0" devices="tripinfo_92911" vType="DEFAULT_VEHTYPE" speedFactor="1.00" vaporized=""/>
    <tripinfo id="345976" depart="10.00" departLane="gneE14_1" departPos="5.10" departSpeed="7.31" departDelay="8.36" arrival="100.00" arrivalLane="gneE23_1" arrivalPos="22.86" arrivalSpeed="11.23" duration="90.00" routeLength="1368.27" waitingTime="18.00" waitingCount="3" stopTime="0.00" timeLoss="37.99" rerouteNo="0" devices="tripinfo_345976" vType="DEFAULT_VEHTYPE" speedFactor="1.03" vaporized=""/>
    <tripinfo id="314958" depart="3.00" departLane="gneE12_1" departPos="5.10" departSpeed="9.36" departDelay="0.17" arrival="101.00" arrivalLane="gneE15_1" arrivalPos="15.59" arrivalSpeed="10.98" duration="98.00" routeLength="1380.73" waitingTime="25.00" waitingCount="1" stopTime="0.00" timeLoss="39.26" rerouteNo="0" devices="tripinfo_314958" vType="DEFAULT_VEHTYPE" speedFactor="0.95" vaporized=""/>
    <tripinfo id="307229" depart="33.00" departLane="gneE10_0" departPos="5.10" departSpeed="3.68" departDelay="28.40" arrival="102.00" arrivalLane="gneE13_0" arrivalPos="25.70" arrivalSpeed="11.70" duration="69.00" routeLength="1362.70" waitingTime="0.00" waitingCount="0" stopTime="0.00" timeLoss="12.99" rerouteNo="0" devices="tripinfo_307229" vType="DEFAULT_VEHTYPE" speedFactor="0.94" vaporized=""/>
    <tripinfo id="286431" depart="5.00" departLane="edg_2_o_0" departPos="5.10" departSpeed="7.03" departDelay="0.09" arrival="102.00" arrivalLane="gneE11_1" arrivalPos="30.19" arrivalSpeed="12.85" duration="97.00" routeLength="1604.89" waitingTime="22.00" waitingCount="1" stopTime="0.00" timeLoss="37.01" rerouteNo="0" devices="tripinfo_286431" vType="DEFAULT_VEHTYPE" speedFactor="1.03" vaporized=""/>
    <tripinfo id="191217" depart="3.00" departLane="gneE36_0" departPos="5.10" departSpeed="2.35" departDelay="2.31" arrival="104.00" arrivalLane="gneE30_0" arrivalPos="27.32" arrivalSpeed="12.06" duration="101.00" routeLength="1582.47" waitingTime="25.00" waitingCount="1" stopTime="0.00" timeLoss="36.70" rerouteNo="0" devices="tripinfo_191217" vType="DEFAULT_VEHTYPE" speedFactor="0.94" vaporized=""/>
    <tripinfo id="167198" depart="43.00" departLane="gneE29_1" departPos="5.10" departSpeed="3.46" departDelay="41.07" arrival="104.00" arrivalLane="gneE25_0" arrivalPos="16.65" arrivalSpeed="12.56" duration="61.00" routeLength="1391.10" waitingTime="0.00" waitingCount="0" stopTime="0.00" timeLoss="6.46" rerouteNo="0" devices="tripinfo_167198" vType="DEFAULT_VEHTYPE" speedFactor="0.97" vaporized=""/>
    <tripinfo id="346645" depart="12.00" departLane="gneE14_1" departPos="5.10" departSpeed="1.72" departDelay="9.10" arrival="104.00" arrivalLane="gneE23_1" arrivalPos="22.86" arrivalSpeed="12.81" duration="92.00" routeLength="1368.27" waitingTime="11.00" waitingCount="4" stopTime="0.00" timeLoss="35.91" rerouteNo="0" devices="tripinfo_346645" vType="DEFAULT_VEHTYPE" speedFactor="0.97" vaporized=""/>
    <tripinfo id="286190" depart="9.00" departLane="edg_2_o_1" departPos="5.10" departSpeed="6.77" departDelay="2.31" arrival="104.00" arrivalLane="gneE11_1" arrivalPos="30.19" arrivalSpeed="13.35" duration="95.00" routeLength="1604.89" waitingTime="20.00" waitingCount="1" stopTime="0.00" timeLoss="39.02" rerouteNo="0" devices="tripinfo_286190" vType="DEFAULT_VEHTYPE" speedFactor="1.11" vaporized=""/>
    <tripinfo id="167099" depart="47.00" departLane="gneE29_0" departPos="5.10" departSpeed="7.83" departDelay="45.01" arrival="106.00" arrivalLane="gneE25_0" arrivalPos="16.65" arrivalSpeed="13.72" duration="59.00" routeLength="1391.10" waitingTime="0.00" waitingCount="0" stopTime="0.00" timeLoss="8.53" rerouteNo="0" devices="tripinfo_167099" vType="DEFAULT_VEHTYPE" speedFactor="1.06" vaporized=""/>
    <tripinfo id="314906" depart="39.00" departLane="gneE12_0" departPos="5.10" departSpeed="0.64" departDelay="32.12" arrival="109.00" arrivalLane="gneE15_1" arrivalPos="15.59" arrivalSpeed="12.69" duration="70.00" routeLength="1380.73" waitingTime="0.00" waitingCount="0" stopTime="0.00" timeLoss="19.16" rerouteNo="0" devices="tripinfo_314906" vType="DEFAULT_VEHTYPE" speedFactor="1.09" vaporized=""/>
    <tripinfo id="286351" depart="11.00" departLane="edg_2_o_0" departPos="5.10" departSpeed="3.47" departDelay="4.13" arrival="111.00" arrivalLane="gneE11_1" arrivalPos="30.19" arrivalSpeed="12.84" duration="100.00" routeLength="1604.89" waitingTime="16.00" waitingCount="1" stopTime="0.00" timeLoss="37.78" rerouteNo="0" devices="tripinfo_286351" vType="DEFAULT_VEHTYPE" speedFactor="0.99" vaporized=""/>
    <tripinfo id="217427" depart="2.00" departLane="gneE48_0" departPos="5.10" departSpeed="7.74" departDelay="1.83" arrival="112.00" arrivalLane="gneE35_0" arrivalPos="17.87" arrivalSpeed="14.51" duration="110.00" routeLength="3128.13" waitingTime="0.00" waitingCount="0" stopTime="0.00" timeLoss="8.27" rerouteNo="0" devices="tripinfo_217427" vType="DEFAULT_VEHTYPE" speedFactor="1.12" vaporized=""/>
    <tripinfo id="154456" depart="1.00" departLane="gneE26_1" departPos="5.10" departSpeed="12.03" departDelay="0.57" arrival="114.00" arrivalLane="gneE15_0" arrivalPos="15.59" arrivalSpeed="14.88" duration="113.00" routeLength="1392.54" waitingTime="53.00" waitingCount="1" stopTime="0.00" timeLoss="64.65" rerouteNo="0" devices="tripinfo_154456" vType="DEFAULT_VEHTYPE" speedFactor="1.09" vaporized=""/>
    <tripinfo id="191770" depart="42.00" departLane="gneE36_0" departPos="5.10" departSpeed="2.13" departDelay="39.93" arrival="114.00" arrivalLane="gneE30_0" arrivalPos="27.32" arrivalSpeed="13.40" duration="72.00" routeLength="1582.47" waitingTime="1.00" waitingCount="1" stopTime="0.00" timeLoss="13.37" rerouteNo="0" devices="tripinfo_191770" vType="DEFAULT_VEHTYPE" speedFactor="1.02" vaporized=""/>
    <tripinfo id="286338" depart="19.00" departLane="edg_2_o_0" departPos="5.10" departSpeed="3.06" departDelay="5.30" arrival="116.00" arrivalLane="gneE11_1" arrivalPos="30.19" arrivalSpeed="11.48" duration="97.00" routeLength="1604.89" waitingTime="1.00" waitingCount="1" stopTime="0.00" timeLoss="24.86" rerouteNo="0" devices="tripinfo_286338" vType="DEFAULT_VEHTYPE" speedFactor="0.84" vaporized=""/>
    <tripinfo id="314501" depart="43.00" departLane="gneE12_1" departPos="5.10" departSpeed="5.06" departDelay="35.39" arrival="117.00" arrivalLane="gneE15_1" arrivalPos="15.59" arrivalSpeed="11.78" duration="74.00" routeLength="1380.73" waitingTime="1.00" waitingCount="1" stopTime="0.00" timeLoss="18.04" rerouteNo="0" devices="tripinfo_314501" vType="DEFAULT_VEHTYPE" speedFactor="0.98" vaporized=""/>
    <tripinfo id="282151" depart="46.00" departLane="gneE44_1" departPos="5.10" departSpeed="0.35" departDelay="42.70" arrival="118.00" arrivalLane="gneE37_1" arrivalPos="8.65" arrivalSpeed="14.36" duration="72.00" routeLength="1813.97" waitingTime="0.00" waitingCount="0" stopTime="0.00" timeLoss="14.24" rerouteNo="0" devices="tripinfo_282151" vType="DEFAULT_VEHTYPE" speedFactor="1.17" vaporized=""/>
    <tripinfo id="326748" depart="8.00" departLane="gneE18_0" departPos="5.10" departSpeed="14.09" departDelay="5.41" arrival="124.00" arrivalLane="gneE15_0" arrivalPos="15.59" arrivalSpeed="9.04" duration="116.00" routeLength="2229.57" waitingTime="25.00" waitingCount="1" stopTime="0.00" timeLoss="35.30" rerouteNo="0" devices="tripinfo_326748" vType="DEFAULT_VEHTYPE" speedFactor="1.01" vaporized=""/>
    <tripinfo id="89926" depart="13.00" departLane="gneE41_0" departPos="5.10" departSpeed="1.85" departDelay="9.20" arrival="124.00" arrivalLane="gneE45_0" arrivalPos="19.67" arrivalSpeed="10.38" duration="111.00" routeLength="2216.42" waitingTime="0.00" waitingCount="0" stopTime="0.00" timeLoss="28.13" rerouteNo="0" devices="tripinfo_89926" vType="DEFAULT_VEHTYPE" speedFactor="1.00" vaporized=""/>
    <tripinfo id="277754" depart="49.00" departLane="gneE44_0" departPos="5.10" departSpeed="2.74" departDelay="45.15" arrival="125.00" arrivalLane="gneE42_0" arrivalPos="11.30" arrivalSpeed="11.45" duration="76.00" routeLength="1813.47" waitingTime="5.00" waitingCount="1" stopTime="0.00" timeLoss="21.89" rerouteNo="0" devices="tripinfo_277754" vType="DEFAULT_VEHTYPE" speedFactor="1.26" vaporized=""/>
    <tripinfo id="360075" depart="3.00" departLane="gneE14_0" departPos="5.10" departSpeed="3.96" departDelay="1.50" arrival="126.00" arrivalLane="gneE15_1" arrivalPos="15.59" arrivalSpeed="13.85" duration="123.00" routeLength="2268.38" waitingTime="20.00" waitingCount="2" stopTime="0.00" timeLoss="39.19" rerouteNo="0" devices="tripinfo_360075" vType="DEFAULT_VEHTYPE" speedFactor="1.00" vaporized=""/>
    <tripinfo id="188825" depart="3.00" departLane="gneE36_1" departPos="5.10" departSpeed="2.41" departDelay="2.28" arrival="127.00" arrivalLane="gneE34_0" arrivalPos="16.89" arrivalSpeed="9.14" duration="124.00" routeLength="2232.16" waitingTime="28.00" waitingCount="2" stopTime="0.00" timeLoss="44.60" rerouteNo="0" devices="tripinfo_188825" vType="DEFAULT_VEHTYPE" speedFactor="1.04" vaporized=""/>
    <tripinfo id="360415" depart="9.00" departLane="gneE14_1" departPos="5.10" departSpeed="11.21" departDelay="7.37" arrival="129.00" arrivalLane="gneE15_1" arrivalPos="15.59" arrivalSpeed="12.66" duration="120.00" routeLength="2268.38" waitingTime="10.00" waitingCount="1" stopTime="0.00" timeLoss="28.18" rerouteNo="0" devices="tripinfo_360415" vType="DEFAULT_VEHTYPE" speedFactor="0.91" vaporized=""/>
    <tripinfo id="266624" depart="57.00" departLane="gneE38_0" departPos="5.10" departSpeed="4.43" departDelay="54.70" arrival="129.00" arrivalLane="gneE31_1" arrivalPos="11.79" arrivalSpeed="13.74" duration="72.00" routeLength="1368.85" waitingTime="7.00" waitingCount="2" stopTime="0.00" timeLoss="19.94" rerouteNo="0" devices="tripinfo_266624" vType="DEFAULT_VEHTYPE" speedFactor="0.99" vaporized=""/>
    <tripinfo id="235209" depart="2.00" departLane="gneE46_0" departPos="5.10" departSpeed="10.07" departDelay="0.70" arrival="130.00" arrivalLane="gneE43_1" arrivalPos="19.10" arrivalSpeed="13.61" duration="128.00" routeLength="2043.86" waitingTime="41.00" waitingCount="1" stopTime="0.00" timeLoss="55.99" rerouteNo="0" devices="tripinfo_235209" vType="DEFAULT_VEHTYPE" speedFactor="1.06" vaporized=""/>
    <tripinfo id="360319" depart="3.00" departLane="gneE14_1" departPos="5.10" departSpeed="3.24" departDelay="1.39" arrival="132.00" arrivalLane="gneE15_1" arrivalPos="15.59" arrivalSpeed="13.06" duration="129.00" routeLength="2268.38" waitingTime="14.00" waitingCount="3" stopTime="0.00" timeLoss="51.14" rerouteNo="0" devices="tripinfo_360319" vType="DEFAULT_VEHTYPE" speedFactor="1.08" vaporized=""/>
    <tripinfo id="70683" depart="50.00" departLane="gneE20_1" departPos="5.10" departSpeed="5.07" departDelay="49.00" arrival="134.00" arrivalLane="gneE21_1" arrivalPos="12.74" arrivalSpeed="12.35" duration="84.00" routeLength="1817.28" waitingTime="0.00" waitingCount="0" stopTime="0.00" timeLoss="8.79" rerouteNo="0" devices="tripinfo_70683" vType="DEFAULT_VEHTYPE" speedFactor="0.89" vaporized=""/>
    <tripinfo id="272373" depart="1.00" departLane="gneE38_0" departPos="5.10" departSpeed="4.43" departDelay="0.78" arrival="140.00" arrivalLane="gneE40_1" arrivalPos="27.74" arrivalSpeed="11.45" duration="139.00" routeLength="2038.04" waitingTime="41.00" waitingCount="1" stopTime="0.00" timeLoss="53.52" rerouteNo="0" devices="tripinfo_272373" vType="DEFAULT_VEHTYPE" speedFactor="0.88" vaporized=""/>
    <tripinfo id="278019" depart="62.00" departLane="gneE44_0" departPos="5.10" departSpeed="2.91" departDelay="55.81" arrival="142.00" arrivalLane="gneE42_1" arrivalPos="11.30" arrivalSpeed="10.99" duration="80.00" routeLength="1808.58" waitingTime="2.00" waitingCount="1" stopTime="0.00" timeLoss="14.22" rerouteNo="0" devices="tripinfo_278019" vType="DEFAULT_VEHTYPE" speedFactor="1.03" vaporized=""/>
    <tripinfo id="254879" depart="72.00" departLane="gneE39_0" departPos="5.10" departSpeed="4.74" departDelay="70.66" arrival="144.00" arrivalLane="gneE45_1" arrivalPos="19.67" arrivalSpeed="14.72" duration="72.00" routeLength="1799.81" waitingTime="0.00" waitingCount="0" stopTime="0.00" timeLoss="11.39" rerouteNo="0" devices="tripinfo_254879" vType="DEFAULT_VEHTYPE" speedFactor="1.12" vaporized=""/>
    <tripinfo id="253740" depart="1.00" departLane="gneE39_0" departPos="5.10" departSpeed="10.33" departDelay="0.89" arrival="145.00" arrivalLane="gneE45_0" arrivalPos="19.67" arrivalSpeed="11.05" duration="144.00" routeLength="1799.81" waitingTime="53.00" waitingCount="1" stopTime="0.00" timeLoss="64.81" rerouteNo="0" devices="tripinfo_253740" vType="DEFAULT_VEHTYPE" speedFactor="0.86" vaporized=""/>
    <tripinfo id="359978" depart="40.00" departLane="gneE14_1" departPos="5.10" departSpeed="11.21" departDelay="34.73" arrival="145.00" arrivalLane="gneE15_1" arrivalPos="15.59" arrivalSpeed="12.31" duration="105.00" routeLength="2268.38" waitingTime="1.00" waitingCount="1" stopTime="0.00" timeLoss="12.17" rerouteNo="0" devices="tripinfo_359978" vType="DEFAULT_VEHTYPE" speedFactor="0.90" vaporized=""/>
    <tripinfo id="343456" depart="66.00" departLane="gneE16_1" departPos="5.10" departSpeed="1.97" departDelay="63.71" arrival="147.00" arrivalLane="gneE17_0" arrivalPos="11.61" arrivalSpeed="13.93" duration="81.00" routeLength="2251.50" waitingTime="1.00" waitingCount="1" stopTime="0.00" timeLoss="13.45" rerouteNo="0" devices="tripinfo_343456" vType="DEFAULT_VEHTYPE" speedFactor="1.24" vaporized=""/>
    <tripinfo id="272703" depart="61.00" departLane="gneE38_1" departPos="5.10" departSpeed="13.69" departDelay="58.47" arrival="148.00" arrivalLane="gneE40_1" arrivalPos="27.74" arrivalSpeed="13.44" duration="87.00" routeLength="2038.04" waitingTime="0.00" waitingCount="0" stopTime="0.00" timeLoss="10.92" rerouteNo="0" devices="tripinfo_272703" vType="DEFAULT_VEHTYPE" speedFactor="0.99" vaporized=""/>
    <tripinfo id="359977" depart="54.00" departLane="gneE14_1" departPos="5.10" departSpeed="1.59" departDelay="47.29" arrival="148.00" arrivalLane="gneE15_1" arrivalPos="15.59" arrivalSpeed="15.15" duration="94.00" routeLength="2268.38" waitingTime="3.00" waitingCount="2" stopTime="0.00" timeLoss="16.92" rerouteNo="0" devices="tripinfo_359977" vType="DEFAULT_VEHTYPE" speedFactor="1.10" vaporized=""/>
    <tripinfo id="253978" depart="67.00" departLane="gneE39_1" departPos="5.10" departSpeed="3.21" departDelay="65.91" arrival="150.00" arrivalLane="gneE45_1" arrivalPos="19.67" arrivalSpeed="12.48" duration="83.00" routeLength="1799.81" waitingTime="1.00" waitingCount="1" stopTime="0.00" timeLoss="11.86" rerouteNo="0" devices="tripinfo_253978" vType="DEFAULT_VEHTYPE" speedFactor="0.96" vaporized=""/>
    <tripinfo id="319898" depart="1.00" departLane="gneE18_1" departPos="5.10" departSpeed="13.96" departDelay="0.63" arrival="152.00" arrivalLane="gneE25_0" arrivalPos="16.65" arrivalSpeed="9.46" duration="151.00" routeLength="3535.06" waitingTime="0.00" waitingCount="0" stopTime="0.00" timeLoss="18.76" rerouteNo="0" devices="tripinfo_319898" vType="DEFAULT_VEHTYPE" speedFactor="1.01" vaporized=""/>
    <tripinfo id="306249" depart="40.00" departLane="gneE10_1" departPos="5.10" departSpeed="2.37" departDelay="33.00" arrival="156.00" arrivalLane="gneE11_0" arrivalPos="30.19" arrivalSpeed="12.81" duration="116.00" routeLength="2262.85" waitingTime="13.00" waitingCount="1" stopTime="0.00" timeLoss="30.44" rerouteNo="0" devices="tripinfo_306249" vType="DEFAULT_VEHTYPE" speedFactor="0.99" vaporized=""/>
    <tripinfo id="256238" depart="73.00" departLane="gneE39_1" departPos="5.10" departSpeed="7.96" departDelay="71.61" arrival="162.00" arrivalLane="gneE37_1" arrivalPos="8.65" arrivalSpeed="12.05" duration="89.00" routeLength="2032.99" waitingTime="0.00" waitingCount="0" stopTime="0.00" timeLoss="9.31" rerouteNo="0" devices="tripinfo_256238" vType="DEFAULT_VEHTYPE" speedFactor="0.95" vaporized=""/>
    <tripinfo id="158512" depart="3.00" departLane="gneE29_0" departPos="5.10" departSpeed="6.02" departDelay="1.79" arrival="170.00" arrivalLane="gneE23_0" arrivalPos="22.86" arrivalSpeed="11.57" duration="167.00" routeLength="2623.30" waitingTime="33.00" waitingCount="2" stopTime="0.00" timeLoss="52.60" rerouteNo="0" devices="tripinfo_158512" vType="DEFAULT_VEHTYPE" speedFactor="0.87" vaporized=""/>
    <tripinfo id="252235" depart="67.00" departLane="gneE39_0" departPos="5.10" departSpeed="2.97" departDelay="65.94" arrival="172.00" arrivalLane="gneE47_1" arrivalPos="13.02" arrivalSpeed="14.78" duration="105.00" routeLength="2865.91" waitingTime="0.00" waitingCount="0" stopTime="0.00" timeLoss="8.36" rerouteNo="0" devices="tripinfo_252235" vType="DEFAULT_VEHTYPE" speedFactor="1.10" vaporized=""/>
    <tripinfo id="353064" depart="1.00" departLane="gneE14_0" departPos="5.10" departSpeed="11.21" departDelay="0.59" arrival="179.00" arrivalLane="gneE30_0" arrivalPos="27.32" arrivalSpeed="16.31" duration="178.00" routeLength="3938.08" waitingTime="34.00" waitingCount="1" stopTime="0.00" timeLoss="54.59" rerouteNo="0" devices="tripinfo_353064" vType="DEFAULT_VEHTYPE" speedFactor="1.18" vaporized=""/>
    <tripinfo id="307139" depart="126.00" departLane="gneE10_0" departPos="5.10" departSpeed="5.03" departDelay="113.50" arrival="185.00" arrivalLane="gneE13_0" arrivalPos="25.70" arrivalSpeed="11.61" duration="59.00" routeLength="1362.70" waitingTime="0.00" waitingCount="0" stopTime="0.00" timeLoss="13.38" rerouteNo="0" devices="tripinfo_307139" vType="DEFAULT_VEHTYPE" speedFactor="1.13" vaporized=""/>
    <tripinfo id="280477" depart="136.00" departLane="gneE44_0" departPos="5.10" departSpeed="0.74" departDelay="118.30" arrival="185.00" arrivalLane="gneE45_0" arrivalPos="19.67" arrivalSpeed="9.87" duration="49.00" routeLength="441.27" waitingTime="12.00" waitingCount="1" stopTime="0.00" timeLoss="26.53" rerouteNo="0" devices="tripinfo_280477" vType="DEFAULT_VEHTYPE" speedFactor="0.88" vaporized=""/>
    <tripinfo id="189709" depart="33.00" departLane="gneE36_1" departPos="5.10" departSpeed="4.85" departDelay="32.07" arrival="186.00" arrivalLane="gneE25_0" arrivalPos="16.65" arrivalSpeed="13.18" duration="153.00" routeLength="2907.82" waitingTime="22.00" waitingCount="1" stopTime="0.00" timeLoss="46.76" rerouteNo="0" devices="tripinfo_189709" vType="DEFAULT_VEHTYPE" speedFactor="1.00" vaporized=""/>
    <tripinfo id="155095" depart="65.00" departLane="gneE26_0" departPos="5.10" departSpeed="4.68" departDelay="63.55" arrival="186.00" arrivalLane="gneE15_0" arrivalPos="15.59" arrivalSpeed="13.46" duration="121.00" routeLength="1392.54" waitingTime="52.00" waitingCount="1" stopTime="0.00" timeLoss="68.54" rerouteNo="0" devices="tripinfo_155095" vType="DEFAULT_VEHTYPE" speedFactor="1.00" vaporized=""/>
    <tripinfo id="342482" depart="63.00" departLane="gneE16_1" departPos="5.10" departSpeed="0.99" departDelay="61.42" arrival="186.00" arrivalLane="gneE11_0" arrivalPos="30.19" arrivalSpeed="12.47" duration="123.00" routeLength="1389.30" waitingTime="50.00" waitingCount="1" stopTime="0.00" timeLoss="65.22" rerouteNo="0" devices="tripinfo_342482" vType="DEFAULT_VEHTYPE" speedFactor="0.91" vaporized=""/>
    <tripinfo id="178914" depart="37.00" departLane="gneE29_1" departPos="5.10" departSpeed="0.59" departDelay="35.64" arrival="188.00" arrivalLane="gneE15_0" arrivalPos="15.59" arrivalSpeed="13.31" duration="151.00" routeLength="2710.02" waitingTime="34.00" waitingCount="1" stopTime="0.00" timeLoss="54.47" rerouteNo="0" devices="tripinfo_178914" vType="DEFAULT_VEHTYPE" speedFactor="1.04" vaporized=""/>
    <tripinfo id="357464" depart="23.00" departLane="gneE14_0" departPos="5.10" departSpeed="6.28" departDelay="19.56" arrival="188.00" arrivalLane="gneE4_0" arrivalPos="11.43" arrivalSpeed="11.67" duration="165.00" routeLength="3353.31" waitingTime="21.00" waitingCount="1" stopTime="0.00" timeLoss="44.95" rerouteNo="0" devices="tripinfo_357464" vType="DEFAULT_VEHTYPE" speedFactor="1.03" vaporized=""/>
    <tripinfo id="244757" depart="6.00" departLane="gneE39_0" departPos="5.10" departSpeed="0.66" departDelay="4.96" arrival="189.00" arrivalLane="gneE34_0" arrivalPos="16.89" arrivalSpeed="13.78" duration="183.00" routeLength="1388.02" waitingTime="114.00" waitingCount="2" stopTime="0.00" timeLoss="133.21" rerouteNo="0" devices="tripinfo_244757" vType="DEFAULT_VEHTYPE" speedFactor="1.06" vaporized=""/>
    <tripinfo id="111765" depart="70.00" departLane="gneE33_0" departPos="5.10" departSpeed="3.80" departDelay="67.30" arrival="189.00" arrivalLane="gneE23_0" arrivalPos="22.86" arrivalSpeed="16.92" duration="119.00" routeLength="2929.21" waitingTime="7.00" waitingCount="4" stopTime="0.00" timeLoss="33.28" rerouteNo="0" devices="tripinfo_111765" vType="DEFAULT_VEHTYPE" speedFactor="1.26" vaporized=""/>
    <tripinfo id="232532" depart="50.00" departLane="gneE46_1" departPos="5.10" departSpeed="4.98" departDelay="47.30" arrival="189.00" arrivalLane="gneE40_0" arrivalPos="27.74" arrivalSpeed="12.80" duration="139.00" routeLength="1824.31" waitingTime="52.00" waitingCount="1" stopTime="0.00" timeLoss="68.44" rerouteNo="0" devices="tripinfo_232532" vType="DEFAULT_VEHTYPE" speedFactor="0.97" vaporized=""/>
    <tripinfo id="280507" depart="139.00" departLane="gneE44_1" departPos="5.10" departSpeed="2.11" departDelay="120.71" arrival="189.00" arrivalLane="gneE45_0" arrivalPos="19.67" arrivalSpeed="9.53" duration="50.00" routeLength="441.27" waitingTime="8.00" waitingCount="1" stopTime="0.00" timeLoss="24.49" rerouteNo="0" devices="tripinfo_280507" vType="DEFAULT_VEHTYPE" speedFactor="0.80" vaporized=""/>
    <tripinfo id="113754" depart="1.00" departLane="gneE33_1" departPos="5.10" departSpeed="9.09" departDelay="0.20" arrival="191.00" arrivalLane="gneE23_0" arrivalPos="22.86" arrivalSpeed="12.91" duration="190.00" routeLength="2929.21" waitingTime="59.00" waitingCount="2" stopTime="0.00" timeLoss="80.37" rerouteNo="0" devices="tripinfo_113754" vType="DEFAULT_VEHTYPE" speedFactor="0.98" vaporized=""/>
    <tripinfo id="233223" depart="3.00" departLane="gneE46_1" departPos="5.10" departSpeed="5.44" departDelay="1.40" arrival="191.00" arrivalLane="gneE40_0" arrivalPos="27.74" arrivalSpeed="11.51" duration="188.00" routeLength="1824.31" waitingTime="86.00" waitingCount="2" stopTime="0.00" timeLoss="110.18" rerouteNo="0" devices="tripinfo_233223" vType="DEFAULT_VEHTYPE" speedFactor="0.88" vaporized=""/>
    <tripinfo id="244106" depart="75.00" departLane="gneE39_0" departPos="5.10" departSpeed="4.45" departDelay="73.00" arrival="191.00" arrivalLane="gneE34_0" arrivalPos="16.89" arrivalSpeed="12.12" duration="116.00" routeLength="1388.02" waitingTime="42.00" waitingCount="1" stopTime="0.00" timeLoss="55.93" rerouteNo="0" devices="tripinfo_244106" vType="DEFAULT_VEHTYPE" speedFactor="0.87" vaporized=""/>
    <tripinfo id="332597" depart="2.00" departLane="gneE16_0" departPos="5.10" departSpeed="4.73" departDelay="1.16" arrival="192.00" arrivalLane="gneE25_1" arrivalPos="16.65" arrivalSpeed="12.58" duration="190.00" routeLength="1352.69" waitingTime="118.00" waitingCount="3" stopTime="0.00" timeLoss="141.25" rerouteNo="0" devices="tripinfo_332597" vType="DEFAULT_VEHTYPE" speedFactor="1.09" vaporized=""/>
    <tripinfo id="232321" depart="56.00" departLane="gneE46_0" departPos="5.10" departSpeed="5.31" departDelay="51.85" arrival="192.00" arrivalLane="gneE40_0" arrivalPos="27.74" arrivalSpeed="12.89" duration="136.00" routeLength="1824.31" waitingTime="48.00" waitingCount="1" stopTime="0.00" timeLoss="68.59" rerouteNo="0" devices="tripinfo_232321" vType="DEFAULT_VEHTYPE" speedFactor="1.01" vaporized=""/>