<?xml version="1.0" encoding="UTF-8"?>

<!-- generated on 05/04/23 15:43:29 by Eclipse SUMO sumo Version 1.8.0
<configuration xmlns:xsi="http://www.w3.org/2001/XMLSchema-instance" xsi:noNamespaceSchemaLocation="http://sumo.dlr.de/xsd/sumoConfiguration.xsd">

    <input>
        <net-file value="7\../SiouxFalls.net.xml"/>
        <route-files value="7\SiouxFalls_007.rou.xml"/>
        <additional-files value="7\dua_dump_007.add.xml"/>
    </input>

    <output>
        <summary-output value="7\summary_007.xml"/>
        <tripinfo-output value="7\tripinfo_007.xml"/>
    </output>

    <time>
        <begin value="0.0"/>
        <end value="1500.0"/>
    </time>

    <processing>
        <route-steps value="100"/>
        <no-internal-links value="false"/>
        <time-to-teleport value="300"/>
        <time-to-teleport.highways value="0"/>
        <eager-insert value="false"/>
    </processing>

    <report>
        <verbose value="true"/>
        <no-warnings value="false"/>
        <log value="7\iteration_007.sumo.log"/>
        <no-step-log value="true"/>
    </report>

    <random_number>
        <random value="false"/>
    </random_number>

</configuration>
-->

<tripinfos xmlns:xsi="http://www.w3.org/2001/XMLSchema-instance" xsi:noNamespaceSchemaLocation="http://sumo.dlr.de/xsd/tripinfo_file.xsd">
    <tripinfo id="358070" depart="1.00" departLane="gneE14_1" departPos="5.10" departSpeed="11.21" departDelay="0.28" arrival="66.00" arrivalLane="gneE9_0" arrivalPos="14.85" arrivalSpeed="13.93" duration="65.00" routeLength="1382.19" waitingTime="2.00" waitingCount="1" stopTime="0.00" timeLoss="13.15" rerouteNo="0" devices="tripinfo_358070" vType="DEFAULT_VEHTYPE" speedFactor="1.02" vaporized=""/>
    <tripinfo id="307162" depart="4.00" departLane="gneE10_1" departPos="5.10" departSpeed="1.28" departDelay="0.27" arrival="94.00" arrivalLane="gneE13_0" arrivalPos="25.70" arrivalSpeed="10.31" duration="90.00" routeLength="1362.70" waitingTime="24.00" waitingCount="1" stopTime="0.00" timeLoss="37.59" rerouteNo="0" devices="tripinfo_307162" vType="DEFAULT_VEHTYPE" speedFactor="0.99" vaporized=""/>
    <tripinfo id="314338" depart="1.00" departLane="gneE12_0" departPos="5.10" departSpeed="12.71" departDelay="0.59" arrival="95.00" arrivalLane="gneE15_1" arrivalPos="15.59" arrivalSpeed="10.98" duration="94.00" routeLength="1380.73" waitingTime="28.00" waitingCount="2" stopTime="0.00" timeLoss="44.90" rerouteNo="0" devices="tripinfo_314338" vType="DEFAULT_VEHTYPE" speedFactor="1.10" vaporized=""/>
    <tripinfo id="312949" depart="2.00" departLane="gneE12_0" departPos="5.10" departSpeed="10.08" departDelay="0.59" arrival="95.00" arrivalLane="gneE3_0" arrivalPos="21.26" arrivalSpeed="10.73" duration="93.00" routeLength="1591.21" waitingTime="25.00" waitingCount="1" stopTime="0.00" timeLoss="41.51" rerouteNo="0" devices="tripinfo_312949" vType="DEFAULT_VEHTYPE" speedFactor="1.16" vaporized=""/>
    <tripinfo id="307795" depart="33.00" departLane="gneE10_1" departPos="5.10" departSpeed="5.13" departDelay="28.59" arrival="96.00" arrivalLane="gneE13_0" arrivalPos="25.70" arrivalSpeed="12.19" duration="63.00" routeLength="1362.70" waitingTime="0.00" waitingCount="0" stopTime="0.00" timeLoss="14.42" rerouteNo="0" devices="tripinfo_307795" vType="DEFAULT_VEHTYPE" speedFactor="1.07" vaporized=""/>
    <tripinfo id="280376" depart="61.00" departLane="gneE44_1" departPos="5.10" departSpeed="6.88" departDelay="54.81" arrival="97.00" arrivalLane="gneE45_0" arrivalPos="19.67" arrivalSpeed="8.67" duration="36.00" routeLength="441.27" waitingTime="1.00" waitingCount="1" stopTime="0.00" timeLoss="16.90" rerouteNo="0" devices="tripinfo_280376" vType="DEFAULT_VEHTYPE" speedFactor="1.01" vaporized=""/>
    <tripinfo id="191488" depart="1.00" departLane="gneE36_0" departPos="5.10" departSpeed="7.72" departDelay="0.61" arrival="98.00" arrivalLane="gneE30_0" arrivalPos="27.32" arrivalSpeed="13.50" duration="97.00" routeLength="1582.47" waitingTime="26.00" waitingCount="1" stopTime="0.00" timeLoss="35.85" rerouteNo="0" devices="tripinfo_191488" vType="DEFAULT_VEHTYPE" speedFactor="0.99" vaporized=""/>
    <tripinfo id="92705" depart="3.00" departLane="gneE41_0" departPos="5.10" departSpeed="7.67" departDelay="1.78" arrival="98.00" arrivalLane="gneE43_0" arrivalPos="19.10" arrivalSpeed="11.70" duration="95.00" routeLength="1798.44" waitingTime="0.00" waitingCount="0" stopTime="0.00" timeLoss="27.93" rerouteNo="0" devices="tripinfo_92705" vType="DEFAULT_VEHTYPE" speedFactor="1.01" vaporized=""/>
    <tripinfo id="345590" depart="2.00" departLane="gneE14_1" departPos="5.10" departSpeed="7.66" departDelay="0.77" arrival="99.00" arrivalLane="gneE23_1" arrivalPos="22.86" arrivalSpeed="14.06" duration="97.00" routeLength="1368.27" waitingTime="30.00" waitingCount="2" stopTime="0.00" timeLoss="47.63" rerouteNo="0" devices="tripinfo_345590" vType="DEFAULT_VEHTYPE" speedFactor="1.10" vaporized=""/>
    <tripinfo id="165830" depart="3.00" departLane="gneE29_1" departPos="5.10" departSpeed="4.35" departDelay="1.73" arrival="99.00" arrivalLane="gneE25_0" arrivalPos="16.65" arrivalSpeed="12.93" duration="96.00" routeLength="1391.10" waitingTime="30.00" waitingCount="3" stopTime="0.00" timeLoss="42.51" rerouteNo="0" devices="tripinfo_165830" vType="DEFAULT_VEHTYPE" speedFactor="0.99" vaporized=""/>
    <tripinfo id="92911" depart="6.00" departLane="gneE41_0" departPos="5.10" departSpeed="4.60" departDelay="4.37" arrival="100.00" arrivalLane="gneE43_0" arrivalPos="19.10" arrivalSpeed="10.17" duration="94.00" routeLength="1798.44" waitingTime="0.00" waitingCount="0" stopTime="0.00" timeLoss="27.10" rerouteNo="0" devices="tripinfo_92911" vType="DEFAULT_VEHTYPE" speedFactor="1.00" vaporized=""/>
    <tripinfo id="314958" depart="3.00" departLane="gneE12_1" departPos="5.10" departSpeed="9.36" departDelay="0.17" arrival="100.00" arrivalLane="gneE15_1" arrivalPos="15.59" arrivalSpeed="11.99" duration="97.00" routeLength="1380.73" waitingTime="25.00" waitingCount="1" stopTime="0.00" timeLoss="38.77" rerouteNo="0" devices="tripinfo_314958" vType="DEFAULT_VEHTYPE" speedFactor="0.95" vaporized=""/>
    <tripinfo id="307682" depart="35.00" departLane="gneE10_1" departPos="5.10" departSpeed="6.25" departDelay="30.32" arrival="100.00" arrivalLane="gneE13_0" arrivalPos="25.70" arrivalSpeed="10.51" duration="65.00" routeLength="1362.70" waitingTime="0.00" waitingCount="0" stopTime="0.00" timeLoss="9.90" rerouteNo="0" devices="tripinfo_307682" vType="DEFAULT_VEHTYPE" speedFactor="0.94" vaporized=""/>
    <tripinfo id="345976" depart="10.00" departLane="gneE14_1" departPos="5.10" departSpeed="7.31" departDelay="8.36" arrival="101.00" arrivalLane="gneE23_1" arrivalPos="22.86" arrivalSpeed="11.26" duration="91.00" routeLength="1368.27" waitingTime="17.00" waitingCount="3" stopTime="0.00" timeLoss="39.10" rerouteNo="0" devices="tripinfo_345976" vType="DEFAULT_VEHTYPE" speedFactor="1.03" vaporized=""/>
    <tripinfo id="286431" depart="5.00" departLane="edg_2_o_0" departPos="5.10" departSpeed="7.03" departDelay="0.09" arrival="102.00" arrivalLane="gneE11_1" arrivalPos="30.19" arrivalSpeed="12.43" duration="97.00" routeLength="1604.89" waitingTime="21.00" waitingCount="1" stopTime="0.00" timeLoss="37.20" rerouteNo="0" devices="tripinfo_286431" vType="DEFAULT_VEHTYPE" speedFactor="1.03" vaporized=""/>
    <tripinfo id="307229" depart="33.00" departLane="gneE10_0" departPos="5.10" departSpeed="2.66" departDelay="28.40" arrival="103.00" arrivalLane="gneE13_0" arrivalPos="25.70" arrivalSpeed="9.90" duration="70.00" routeLength="1362.70" waitingTime="0.00" waitingCount="0" stopTime="0.00" timeLoss="14.94" rerouteNo="0" devices="tripinfo_307229" vType="DEFAULT_VEHTYPE" speedFactor="0.94" vaporized=""/>
    <tripinfo id="191217" depart="3.00" departLane="gneE36_0" departPos="5.10" departSpeed="2.35" departDelay="2.31" arrival="104.00" arrivalLane="gneE30_0" arrivalPos="27.32" arrivalSpeed="12.00" duration="101.00" routeLength="1582.47" waitingTime="25.00" waitingCount="1" stopTime="0.00" timeLoss="36.50" rerouteNo="0" devices="tripinfo_191217" vType="DEFAULT_VEHTYPE" speedFactor="0.94" vaporized=""/>
    <tripinfo id="167198" depart="43.00" departLane="gneE29_1" departPos="5.10" departSpeed="3.46" departDelay="41.07" arrival="104.00" arrivalLane="gneE25_0" arrivalPos="16.65" arrivalSpeed="12.46" duration="61.00" routeLength="1391.10" waitingTime="0.00" waitingCount="0" stopTime="0.00" timeLoss="6.46" rerouteNo="0" devices="tripinfo_167198" vType="DEFAULT_VEHTYPE" speedFactor="0.97" vaporized=""/>
    <tripinfo id="346645" depart="12.00" departLane="gneE14_1" departPos="5.10" departSpeed="1.72" departDelay="9.10" arrival="104.00" arrivalLane="gneE23_1" arrivalPos="22.86" arrivalSpeed="13.32" duration="92.00" routeLength="1368.27" waitingTime="14.00" waitingCount="4" stopTime="0.00" timeLoss="35.63" rerouteNo="0" devices="tripinfo_346645" vType="DEFAULT_VEHTYPE" speedFactor="0.97" vaporized=""/>
    <tripinfo id="167099" depart="47.00" departLane="gneE29_0" departPos="5.10" departSpeed="7.83" departDelay="45.01" arrival="106.00" arrivalLane="gneE25_0" arrivalPos="16.65" arrivalSpeed="14.01" duration="59.00" routeLength="1391.10" waitingTime="0.00" waitingCount="0" stopTime="0.00" timeLoss="8.53" rerouteNo="0" devices="tripinfo_167099" vType="DEFAULT_VEHTYPE" speedFactor="1.06" vaporized=""/>
    <tripinfo id="286190" depart="11.00" departLane="edg_2_o_1" departPos="5.10" departSpeed="11.29" departDelay="4.31" arrival="106.00" arrivalLane="gneE11_1" arrivalPos="30.19" arrivalSpeed="14.25" duration="95.00" routeLength="1604.89" waitingTime="19.00" waitingCount="1" stopTime="0.00" timeLoss="39.25" rerouteNo="0" devices="tripinfo_286190" vType="DEFAULT_VEHTYPE" speedFactor="1.11" vaporized=""/>
    <tripinfo id="314906" depart="39.00" departLane="gneE12_0" departPos="5.10" departSpeed="0.64" departDelay="32.12" arrival="109.00" arrivalLane="gneE15_1" arrivalPos="15.59" arrivalSpeed="12.93" duration="70.00" routeLength="1380.73" waitingTime="0.00" waitingCount="0" stopTime="0.00" timeLoss="19.22" rerouteNo="0" devices="tripinfo_314906" vType="DEFAULT_VEHTYPE" speedFactor="1.09" vaporized=""/>
    <tripinfo id="286351" depart="12.00" departLane="edg_2_o_0" departPos="5.10" departSpeed="2.80" departDelay="5.13" arrival="111.00" arrivalLane="gneE11_1" arrivalPos="30.19" arrivalSpeed="12.96" duration="99.00" routeLength="1604.89" waitingTime="15.00" waitingCount="1" stopTime="0.00" timeLoss="36.77" rerouteNo="0" devices="tripinfo_286351" vType="DEFAULT_VEHTYPE" speedFactor="0.99" vaporized=""/>
    <tripinfo id="217427" depart="2.00" departLane="gneE48_0" departPos="5.10" departSpeed="7.74" departDelay="1.83" arrival="112.00" arrivalLane="gneE35_0" arrivalPos="17.87" arrivalSpeed="14.52" duration="110.00" routeLength="3128.13" waitingTime="0.00" waitingCount="0" stopTime="0.00" timeLoss="8.32" rerouteNo="0" devices="tripinfo_217427" vType="DEFAULT_VEHTYPE" speedFactor="1.12" vaporized=""/>
    <tripinfo id="191770" depart="42.00" departLane="gneE36_0" departPos="5.10" departSpeed="2.00" departDelay="39.93" arrival="114.00" arrivalLane="gneE30_0" arrivalPos="27.32" arrivalSpeed="13.54" duration="72.00" routeLength="1582.47" waitingTime="1.00" waitingCount="1" stopTime="0.00" timeLoss="13.18" rerouteNo="0" devices="tripinfo_191770" vType="DEFAULT_VEHTYPE" speedFactor="1.02" vaporized=""/>
    <tripinfo id="154456" depart="1.00" departLane="gneE26_1" departPos="5.10" departSpeed="12.03" departDelay="0.57" arrival="115.00" arrivalLane="gneE15_0" arrivalPos="15.59" arrivalSpeed="15.13" duration="114.00" routeLength="1392.54" waitingTime="53.00" waitingCount="1" stopTime="0.00" timeLoss="65.08" rerouteNo="0" devices="tripinfo_154456" vType="DEFAULT_VEHTYPE" speedFactor="1.09" vaporized=""/>
    <tripinfo id="282151" depart="46.00" departLane="gneE44_1" departPos="5.10" departSpeed="0.35" departDelay="42.70" arrival="118.00" arrivalLane="gneE37_1" arrivalPos="8.65" arrivalSpeed="15.56" duration="72.00" routeLength="1813.97" waitingTime="0.00" waitingCount="0" stopTime="0.00" timeLoss="14.09" rerouteNo="0" devices="tripinfo_282151" vType="DEFAULT_VEHTYPE" speedFactor="1.17" vaporized=""/>
    <tripinfo id="314501" depart="43.00" departLane="gneE12_1" departPos="5.10" departSpeed="5.06" departDelay="35.39" arrival="118.00" arrivalLane="gneE15_1" arrivalPos="15.59" arrivalSpeed="11.29" duration="75.00" routeLength="1380.73" waitingTime="3.00" waitingCount="1" stopTime="0.00" timeLoss="19.35" rerouteNo="0" devices="tripinfo_314501" vType="DEFAULT_VEHTYPE" speedFactor="0.98" vaporized=""/>
    <tripinfo id="42575" depart="4.00" departLane="gneE24_1" departPos="5.10" departSpeed="1.58" departDelay="3.44" arrival="119.00" arrivalLane="gneE13_1" arrivalPos="25.70" arrivalSpeed="11.30" duration="115.00" routeLength="1400.85" waitingTime="43.00" waitingCount="2" stopTime="0.00" timeLoss="55.74" rerouteNo="0" devices="tripinfo_42575" vType="DEFAULT_VEHTYPE" speedFactor="0.90" vaporized=""/>
    <tripinfo id="286338" depart="22.00" departLane="edg_2_o_0" departPos="5.10" departSpeed="2.58" departDelay="8.30" arrival="121.00" arrivalLane="gneE11_1" arrivalPos="30.19" arrivalSpeed="11.14" duration="99.00" routeLength="1604.89" waitingTime="4.00" waitingCount="1" stopTime="0.00" timeLoss="26.24" rerouteNo="0" devices="tripinfo_286338" vType="DEFAULT_VEHTYPE" speedFactor="0.84" vaporized=""/>
    <tripinfo id="89926" depart="13.00" departLane="gneE41_0" departPos="5.10" departSpeed="1.85" departDelay="9.20" arrival="123.00" arrivalLane="gneE45_0" arrivalPos="19.67" arrivalSpeed="9.08" duration="110.00" routeLength="2216.42" waitingTime="0.00" waitingCount="0" stopTime="0.00" timeLoss="27.61" rerouteNo="0" devices="tripinfo_89926" vType="DEFAULT_VEHTYPE" speedFactor="1.00" vaporized=""/>
    <tripinfo id="277754" depart="50.00" departLane="gneE44_0" departPos="5.10" departSpeed="3.74" departDelay="46.15" arrival="124.00" arrivalLane="gneE42_1" arrivalPos="11.30" arrivalSpeed="10.52" duration="74.00" routeLength="1808.58" waitingTime="3.00" waitingCount="1" stopTime="0.00" timeLoss="20.11" rerouteNo="0" devices="tripinfo_277754" vType="DEFAULT_VEHTYPE" speedFactor="1.26" vaporized=""/>
    <tripinfo id="188825" depart="3.00" departLane="gneE36_1" departPos="5.10" departSpeed="2.41" departDelay="2.28" arrival="125.00" arrivalLane="gneE34_0" arrivalPos="16.89" arrivalSpeed="8.14" duration="122.00" routeLength="2232.16" waitingTime="27.00" waitingCount="2" stopTime="0.00" timeLoss="42.72" rerouteNo="0" devices="tripinfo_188825" vType="DEFAULT_VEHTYPE" speedFactor="1.04" vaporized=""/>
    <tripinfo id="326748" depart="8.00" departLane="gneE18_0" departPos="5.10" departSpeed="14.09" departDelay="5.41" arrival="125.00" arrivalLane="gneE15_0" arrivalPos="15.59" arrivalSpeed="8.55" duration="117.00" routeLength="2229.57" waitingTime="26.00" waitingCount="1" stopTime="0.00" timeLoss="35.99" rerouteNo="0" devices="tripinfo_326748" vType="DEFAULT_VEHTYPE" speedFactor="1.01" vaporized=""/>
    <tripinfo id="360075" depart="3.00" departLane="gneE14_0" departPos="5.10" departSpeed="3.96" departDelay="1.50" arrival="126.00" arrivalLane="gneE15_1" arrivalPos="15.59" arrivalSpeed="12.99" duration="123.00" routeLength="2268.38" waitingTime="20.00" waitingCount="2" stopTime="0.00" timeLoss="39.58" rerouteNo="0" devices="tripinfo_360075" vType="DEFAULT_VEHTYPE" speedFactor="1.00" vaporized=""/>
    <tripinfo id="266624" depart="57.00" departLane="gneE38_0" departPos="5.10" departSpeed="4.43" departDelay="54.70" arrival="127.00" arrivalLane="gneE31_1" arrivalPos="11.79" arrivalSpeed="12.89" duration="70.00" routeLength="1368.85" waitingTime="6.00" waitingCount="3" stopTime="0.00" timeLoss="18.31" rerouteNo="0" devices="tripinfo_266624" vType="DEFAULT_VEHTYPE" speedFactor="0.99" vaporized=""/>
    <tripinfo id="360415" depart="9.00" departLane="gneE14_1" departPos="5.10" departSpeed="11.21" departDelay="7.37" arrival="128.00" arrivalLane="gneE15_1" arrivalPos="15.59" arrivalSpeed="12.17" duration="119.00" routeLength="2268.38" waitingTime="11.00" waitingCount="1" stopTime="0.00" timeLoss="27.95" rerouteNo="0" devices="tripinfo_360415" vType="DEFAULT_VEHTYPE" speedFactor="0.91" vaporized=""/>
    <tripinfo id="235209" depart="2.00" departLane="gneE46_0" departPos="5.10" departSpeed="10.07" departDelay="0.70" arrival="130.00" arrivalLane="gneE43_1" arrivalPos="19.10" arrivalSpeed="14.59" duration="128.00" routeLength="2043.86" waitingTime="41.00" waitingCount="1" stopTime="0.00" timeLoss="55.38" rerouteNo="0" devices="tripinfo_235209" vType="DEFAULT_VEHTYPE" speedFactor="1.06" vaporized=""/>
    <tripinfo id="360319" depart="3.00" departLane="gneE14_1" departPos="5.10" departSpeed="3.24" departDelay="1.39" arrival="130.00" arrivalLane="gneE15_1" arrivalPos="15.59" arrivalSpeed="14.54" duration="127.00" routeLength="2268.38" waitingTime="14.00" waitingCount="3" stopTime="0.00" timeLoss="49.52" rerouteNo="0" devices="tripinfo_360319" vType="DEFAULT_VEHTYPE" speedFactor="1.08" vaporized=""/>
    <tripinfo id="272373" depart="1.00" departLane="gneE38_0" departPos="5.10" departSpeed="4.43" departDelay="0.78" arrival="140.00" arrivalLane="gneE40_1" arrivalPos="27.74" arrivalSpeed="11.28" duration="139.00" routeLength="2038.04" waitingTime="41.00" waitingCount="1" stopTime="0.00" timeLoss="53.59" rerouteNo="0" devices="tripinfo_272373" vType="DEFAULT_VEHTYPE" speedFactor="0.88" vaporized=""/>
    <tripinfo id="254879" depart="72.00" departLane="gneE39_0" departPos="5.10" departSpeed="1.23" departDelay="70.66" arrival="144.00" arrivalLane="gneE45_1" arrivalPos="19.67" arrivalSpeed="14.54" duration="72.00" routeLength="1799.81" waitingTime="0.00" waitingCount="0" stopTime="0.00" timeLoss="12.25" rerouteNo="0" devices="tripinfo_254879" vType="DEFAULT_VEHTYPE" speedFactor="1.12" vaporized=""/>
    <tripinfo id="253740" depart="1.00" departLane="gneE39_0" departPos="5.10" departSpeed="10.33" departDelay="0.89" arrival="145.00" arrivalLane="gneE45_0" arrivalPos="19.67" arrivalSpeed="11.61" duration="144.00" routeLength="1799.81" waitingTime="53.00" waitingCount="1" stopTime="0.00" timeLoss="65.22" rerouteNo="0" devices="tripinfo_253740" vType="DEFAULT_VEHTYPE" speedFactor="0.86" vaporized=""/>
    <tripinfo id="63" depart="56.00" departLane="gneE24_0" departPos="5.10" departSpeed="11.11" departDelay="55.21" arrival="145.00" arrivalLane="gneE21_0" arrivalPos="12.74" arrivalSpeed="8.48" duration="89.00" routeLength="2014.07" waitingTime="0.00" waitingCount="0" stopTime="0.00" timeLoss="11.15" rerouteNo="0" devices="tripinfo_63" vType="DEFAULT_VEHTYPE" speedFactor="0.98" vaporized=""/>
    <tripinfo id="359978" depart="40.00" departLane="gneE14_1" departPos="5.10" departSpeed="11.21" departDelay="34.73" arrival="145.00" arrivalLane="gneE15_1" arrivalPos="15.59" arrivalSpeed="11.36" duration="105.00" routeLength="2268.38" waitingTime="1.00" waitingCount="1" stopTime="0.00" timeLoss="12.35" rerouteNo="0" devices="tripinfo_359978" vType="DEFAULT_VEHTYPE" speedFactor="0.90" vaporized=""/>
    <tripinfo id="278019" depart="64.00" departLane="gneE44_0" departPos="5.10" departSpeed="4.46" departDelay="57.81" arrival="146.00" arrivalLane="gneE42_1" arrivalPos="11.30" arrivalSpeed="11.57" duration="82.00" routeLength="1808.58" waitingTime="5.00" waitingCount="2" stopTime="0.00" timeLoss="16.12" rerouteNo="0" devices="tripinfo_278019" vType="DEFAULT_VEHTYPE" speedFactor="1.03" vaporized=""/>
    <tripinfo id="70683" depart="48.00" departLane="gneE20_0" departPos="5.10" departSpeed="3.12" departDelay="47.00" arrival="147.00" arrivalLane="gneE21_1" arrivalPos="12.74" arrivalSpeed="10.98" duration="99.00" routeLength="1817.28" waitingTime="9.00" waitingCount="1" stopTime="0.00" timeLoss="23.80" rerouteNo="0" devices="tripinfo_70683" vType="DEFAULT_VEHTYPE" speedFactor="0.89" vaporized=""/>
    <tripinfo id="343456" depart="68.00" departLane="gneE16_1" departPos="5.10" departSpeed="9.06" departDelay="65.71" arrival="148.00" arrivalLane="gneE17_0" arrivalPos="11.61" arrivalSpeed="13.06" duration="80.00" routeLength="2251.50" waitingTime="0.00" waitingCount="0" stopTime="0.00" timeLoss="12.30" rerouteNo="0" devices="tripinfo_343456" vType="DEFAULT_VEHTYPE" speedFactor="1.24" vaporized=""/>
    <tripinfo id="272703" depart="61.00" departLane="gneE38_1" departPos="5.10" departSpeed="13.69" departDelay="58.47" arrival="148.00" arrivalLane="gneE40_1" arrivalPos="27.74" arrivalSpeed="13.45" duration="87.00" routeLength="2038.04" waitingTime="0.00" waitingCount="0" stopTime="0.00" timeLoss="10.53" rerouteNo="0" devices="tripinfo_272703" vType="DEFAULT_VEHTYPE" speedFactor="0.99" vaporized=""/>
    <tripinfo id="319898" depart="1.00" departLane="gneE18_1" departPos="5.10" departSpeed="13.96" departDelay="0.63" arrival="151.00" arrivalLane="gneE25_0" arrivalPos="16.65" arrivalSpeed="9.22" duration="150.00" routeLength="3535.06" waitingTime="0.00" waitingCount="0" stopTime="0.00" timeLoss="19.52" rerouteNo="0" devices="tripinfo_319898" vType="DEFAULT_VEHTYPE" speedFactor="1.01" vaporized=""/>
    <tripinfo id="253978" depart="67.00" departLane="gneE39_0" departPos="5.10" departSpeed="5.14" departDelay="65.91" arrival="151.00" arrivalLane="gneE45_0" arrivalPos="19.67" arrivalSpeed="13.20" duration="84.00" routeLength="1799.81" waitingTime="1.00" waitingCount="1" stopTime="0.00" timeLoss="12.83" rerouteNo="0" devices="tripinfo_253978" vType="DEFAULT_VEHTYPE" speedFactor="0.96" vaporized=""/>
    <tripinfo id="19652" depart="2.00" departLane="gneE24_1" departPos="5.10" departSpeed="7.60" departDelay="1.60" arrival="157.00" arrivalLane="gneE30_0" arrivalPos="27.32" arrivalSpeed="13.98" duration="155.00" routeLength="2631.09" waitingTime="41.00" waitingCount="1" stopTime="0.00" timeLoss="59.02" rerouteNo="0" devices="tripinfo_19652" vType="DEFAULT_VEHTYPE" speedFactor="1.02" vaporized=""/>
    <tripinfo id="306249" depart="42.00" departLane="gneE10_0" departPos="5.10" departSpeed="1.89" departDelay="35.00" arrival="157.00" arrivalLane="gneE11_0" arrivalPos="30.19" arrivalSpeed="12.50" duration="115.00" routeLength="2262.85" waitingTime="13.00" waitingCount="2" stopTime="0.00" timeLoss="28.81" rerouteNo="0" devices="tripinfo_306249" vType="DEFAULT_VEHTYPE" speedFactor="0.99" vaporized=""/>
    <tripinfo id="256238" depart="73.00" departLane="gneE39_1" departPos="5.10" departSpeed="6.04" departDelay="71.61" arrival="162.00" arrivalLane="gneE37_1" arrivalPos="8.65" arrivalSpeed="12.09" duration="89.00" routeLength="2032.99" waitingTime="0.00" waitingCount="0" stopTime="0.00" timeLoss="8.48" rerouteNo="0" devices="tripinfo_256238" vType="DEFAULT_VEHTYPE" speedFactor="0.95" vaporized=""/>
    <tripinfo id="158512" depart="3.00" departLane="gneE29_0" departPos="5.10" departSpeed="6.02" departDelay="1.79" arrival="171.00" arrivalLane="gneE23_0" arrivalPos="22.86" arrivalSpeed="10.82" duration="168.00" routeLength="2623.30" waitingTime="32.00" waitingCount="2" stopTime="0.00" timeLoss="53.07" rerouteNo="0" devices="tripinfo_158512" vType="DEFAULT_VEHTYPE" speedFactor="0.87" vaporized=""/>
    <tripinfo id="252235" depart="66.00" departLane="gneE39_1" departPos="5.10" departSpeed="4.06" departDelay="64.94" arrival="175.00" arrivalLane="gneE47_1" arrivalPos="13.02" arrivalSpeed="14.48" duration="109.00" routeLength="2865.91" waitingTime="0.00" waitingCount="0" stopTime="0.00" timeLoss="12.78" rerouteNo="0" devices="tripinfo_252235" vType="DEFAULT_VEHTYPE" speedFactor="1.10" vaporized=""/>
    <tripinfo id="353064" depart="1.00" departLane="gneE14_0" departPos="5.10" departSpeed="11.21" departDelay="0.59" arrival="180.00" arrivalLane="gneE30_0" arrivalPos="27.32" arrivalSpeed="15.31" duration="179.00" routeLength="3938.08" waitingTime="34.00" waitingCount="1" stopTime="0.00" timeLoss="55.18" rerouteNo="0" devices="tripinfo_353064" vType="DEFAULT_VEHTYPE" speedFactor="1.18" vaporized=""/>
    <tripinfo id="307139" depart="54.00" departLane="gneE10_1" departPos="5.10" departSpeed="1.28" departDelay="41.50" arrival="181.00" arrivalLane="gneE13_0" arrivalPos="25.70" arrivalSpeed="11.64" duration="127.00" routeLength="1362.70" waitingTime="64.00" waitingCount="1" stopTime="0.00" timeLoss="80.43" rerouteNo="0" devices="tripinfo_307139" vType="DEFAULT_VEHTYPE" speedFactor="1.13" vaporized=""/>
    <tripinfo id="189709" depart="33.00" departLane="gneE36_1" departPos="5.10" departSpeed="5.17" departDelay="32.07" arrival="186.00" arrivalLane="gneE25_0" arrivalPos="16.65" arrivalSpeed="13.89" duration="153.00" routeLength="2907.82" waitingTime="23.00" waitingCount="1" stopTime="0.00" timeLoss="46.69" rerouteNo="0" devices="tripinfo_189709" vType="DEFAULT_VEHTYPE" speedFactor="1.00" vaporized=""/>
    <tripinfo id="342482" depart="63.00" departLane="gneE16_1" departPos="5.10" departSpeed="0.30" departDelay="61.42" arrival="186.00" arrivalLane="gneE11_0" arrivalPos="30.19" arrivalSpeed="12.45" duration="123.00" routeLength="1389.30" waitingTime="50.00" waitingCount="1" stopTime="0.00" timeLoss="64.56" rerouteNo="0" devices="tripinfo_342482" vType="DEFAULT_VEHTYPE" speedFactor="0.91" vaporized=""/>
    <tripinfo id="142642" depart="73.00" departLane="gneE26_0" departPos="5.10" departSpeed="9.41" departDelay="71.03" arrival="186.00" arrivalLane="gneE30_1" arrivalPos="27.32" arrivalSpeed="11.99" duration="113.00" routeLength="1367.38" waitingTime="42.00" waitingCount="1" stopTime="0.00" timeLoss="55.41" rerouteNo="0" devices="tripinfo_142642" vType="DEFAULT_VEHTYPE" speedFactor="0.93" vaporized=""/>
    <tripinfo id="280477" depart="140.00" departLane="gneE44_0" departPos="5.10" departSpeed="6.58" departDelay="122.30" arrival="186.00" arrivalLane="gneE45_0" arrivalPos="19.67" arrivalSpeed="9.75" duration="46.00" routeLength="441.27" waitingTime="8.00" waitingCount="1" stopTime="0.00" timeLoss="23.18" rerouteNo="0" devices="tripinfo_280477" vType="DEFAULT_VEHTYPE" speedFactor="0.88" vaporized=""/>
    <tripinfo id="155095" depart="64.00" departLane="gneE26_0" departPos="5.10" departSpeed="0.70" departDelay="62.55" arrival="187.00" arrivalLane="gneE15_0" arrivalPos="15.59" arrivalSpeed="13.11" duration="123.00" routeLength="1392.54" waitingTime="53.00" waitingCount="3" stopTime="0.00" timeLoss="69.85" rerouteNo="0" devices="tripinfo_155095" vType="DEFAULT_VEHTYPE" speedFactor="1.00" vaporized=""/>
    <tripinfo id="111765" depart="70.00" departLane="gneE33_0" departPos="5.10" departSpeed="4.66" departDelay="67.30" arrival="187.00" arrivalLane="gneE23_0" arrivalPos="22.86" arrivalSpeed="14.91" duration="117.00" routeLength="2929.21" waitingTime="7.00" waitingCount="3" stopTime="0.00" timeLoss="31.68" rerouteNo="0" devices="tripinfo_111765" vType="DEFAULT_VEHTYPE" speedFactor="1.26" vaporized=""/>
    <tripinfo id="357464" depart="23.00" departLane="gneE14_0" departPos="5.10" departSpeed="6.28" departDelay="19.56" arrival="187.00" arrivalLane="gneE4_0" arrivalPos="11.43" arrivalSpeed="12.36" duration="164.00" routeLength="3353.31" waitingTime="19.00" waitingCount="1" stopTime="0.00" timeLoss="42.83" rerouteNo="0" devices="tripinfo_357464" vType="DEFAULT_VEHTYPE" speedFactor="1.03" vaporized=""/>
    <tripinfo id="344351" depart="31.00" departLane="gneE14_1" departPos="5.10" departSpeed="6.67" departDelay="26.35" arrival="187.00" arrivalLane="gneE23_1" arrivalPos="22.86" arrivalSpeed="11.67" duration="156.00" routeLength="1368.27" waitingTime="76.00" waitingCount="2" stopTime="0.00" timeLoss="99.46" rerouteNo="0" devices="tripinfo_344351" vType="DEFAULT_VEHTYPE" speedFactor="0.96" vaporized=""/>
    <tripinfo id="92654" depart="101.00" departLane="gneE41_1" departPos="5.10" departSpeed="4.57" departDelay="91.53" arrival="187.00" arrivalLane="gneE43_0" arrivalPos="19.10" arrivalSpeed="9.88" duration="86.00" routeLength="1798.44" waitingTime="5.00" waitingCount="1" stopTime="0.00" timeLoss="25.49" rerouteNo="0" devices="tripinfo_92654" vType="DEFAULT_VEHTYPE" speedFactor="1.11" vaporized=""/>
    <tripinfo id="244757" depart="6.00" departLane="gneE39_0" departPos="5.10" departSpeed="0.66" departDelay="4.96" arrival="188.00" arrivalLane="gneE34_0" arrivalPos="16.89" arrivalSpeed="14.35" duration="182.00" routeLength="1388.02" waitingTime="111.00" waitingCount="2" stopTime="0.00" timeLoss="132.04" rerouteNo="0" devices="tripinfo_244757" vType="DEFAULT_VEHTYPE" speedFactor="1.06" vaporized=""/>
    <tripinfo id="183090" depart="3.00" departLane="gneE28_1" departPos="5.10" departSpeed="4.28" departDelay="1.71" arrival="188.00" arrivalLane="gneE30_1" arrivalPos="27.32" arrivalSpeed="13.85" duration="185.00" routeLength="3579.81" waitingTime="26.00" waitingCount="2" stopTime="0.00" timeLoss="56.26" rerouteNo="0" devices="tripinfo_183090" vType="DEFAULT_VEHTYPE" speedFactor="1.03" vaporized=""/>
    <tripinfo id="178914" depart="37.00" departLane="gneE29_1" departPos="5.10" departSpeed="0.59" departDelay="35.64" arrival="188.00" arrivalLane="gneE15_0" arrivalPos="15.59" arrivalSpeed="13.82" duration="151.00" routeLength="2710.02" waitingTime="35.00" waitingCount="1" stopTime="0.00" timeLoss="54.91" rerouteNo="0" devices="tripinfo_178914" vType="DEFAULT_VEHTYPE" speedFactor="1.04" vaporized=""/>
    <tripinfo id="233223" depart="3.00" departLane="gneE46_1" departPos="5.10" departSpeed="5.44" departDelay="1.40" arrival="189.00" arrivalLane="gneE40_0" arrivalPos="27.74" arrivalSpeed="11.73" duration="186.00" routeLength="1824.31" waitingTime="87.00" waitingCount="2" stopTime="0.00" timeLoss="108.45" rerouteNo="0" devices="tripinfo_233223" vType="DEFAULT_VEHTYPE" speedFactor="0.88" vaporized=""/>