<?xml version="1.0" encoding="UTF-8"?>

<!-- generated on 05/04/23 15:37:25 by Eclipse SUMO sumo Version 1.8.0
<configuration xmlns:xsi="http://www.w3.org/2001/XMLSchema-instance" xsi:noNamespaceSchemaLocation="http://sumo.dlr.de/xsd/sumoConfiguration.xsd">

    <input>
        <net-file value="0\../SiouxFalls.net.xml"/>
        <route-files value="0\SiouxFalls_000.rou.xml"/>
        <additional-files value="0\dua_dump_000.add.xml"/>
    </input>

    <output>
        <summary-output value="0\summary_000.xml"/>
        <tripinfo-output value="0\tripinfo_000.xml"/>
    </output>

    <time>
        <begin value="0.0"/>
        <end value="1500.0"/>
    </time>

    <processing>
        <route-steps value="100"/>
        <no-internal-links value="false"/>
        <time-to-teleport value="300"/>
        <time-to-teleport.highways value="0"/>
        <eager-insert value="false"/>
    </processing>

    <report>
        <verbose value="true"/>
        <no-warnings value="false"/>
        <log value="0\iteration_000.sumo.log"/>
        <no-step-log value="true"/>
    </report>

    <random_number>
        <random value="false"/>
    </random_number>

</configuration>
-->

<tripinfos xmlns:xsi="http://www.w3.org/2001/XMLSchema-instance" xsi:noNamespaceSchemaLocation="http://sumo.dlr.de/xsd/tripinfo_file.xsd">
    <tripinfo id="358070" depart="1.00" departLane="gneE14_1" departPos="5.10" departSpeed="11.21" departDelay="0.28" arrival="66.00" arrivalLane="gneE9_0" arrivalPos="14.85" arrivalSpeed="13.08" duration="65.00" routeLength="1382.19" waitingTime="2.00" waitingCount="1" stopTime="0.00" timeLoss="13.14" rerouteNo="0" devices="tripinfo_358070" vType="DEFAULT_VEHTYPE" speedFactor="1.02" vaporized=""/>
    <tripinfo id="307162" depart="4.00" departLane="gneE10_1" departPos="5.10" departSpeed="1.28" departDelay="0.27" arrival="93.00" arrivalLane="gneE13_0" arrivalPos="25.70" arrivalSpeed="10.27" duration="89.00" routeLength="1362.70" waitingTime="24.00" waitingCount="1" stopTime="0.00" timeLoss="36.46" rerouteNo="0" devices="tripinfo_307162" vType="DEFAULT_VEHTYPE" speedFactor="0.99" vaporized=""/>
    <tripinfo id="314338" depart="1.00" departLane="gneE12_0" departPos="5.10" departSpeed="12.71" departDelay="0.59" arrival="95.00" arrivalLane="gneE15_1" arrivalPos="15.59" arrivalSpeed="9.26" duration="94.00" routeLength="1380.73" waitingTime="28.00" waitingCount="2" stopTime="0.00" timeLoss="44.90" rerouteNo="0" devices="tripinfo_314338" vType="DEFAULT_VEHTYPE" speedFactor="1.10" vaporized=""/>
    <tripinfo id="312949" depart="2.00" departLane="gneE12_0" departPos="5.10" departSpeed="10.08" departDelay="0.59" arrival="95.00" arrivalLane="gneE3_0" arrivalPos="21.26" arrivalSpeed="11.43" duration="93.00" routeLength="1591.21" waitingTime="25.00" waitingCount="1" stopTime="0.00" timeLoss="41.21" rerouteNo="0" devices="tripinfo_312949" vType="DEFAULT_VEHTYPE" speedFactor="1.16" vaporized=""/>
    <tripinfo id="307795" depart="33.00" departLane="gneE10_1" departPos="5.10" departSpeed="5.55" departDelay="28.59" arrival="96.00" arrivalLane="gneE13_0" arrivalPos="25.70" arrivalSpeed="11.90" duration="63.00" routeLength="1362.70" waitingTime="0.00" waitingCount="0" stopTime="0.00" timeLoss="13.91" rerouteNo="0" devices="tripinfo_307795" vType="DEFAULT_VEHTYPE" speedFactor="1.07" vaporized=""/>
    <tripinfo id="92705" depart="3.00" departLane="gneE41_0" departPos="5.10" departSpeed="7.67" departDelay="1.78" arrival="97.00" arrivalLane="gneE43_0" arrivalPos="19.10" arrivalSpeed="9.91" duration="94.00" routeLength="1798.44" waitingTime="0.00" waitingCount="0" stopTime="0.00" timeLoss="27.53" rerouteNo="0" devices="tripinfo_92705" vType="DEFAULT_VEHTYPE" speedFactor="1.01" vaporized=""/>
    <tripinfo id="191488" depart="1.00" departLane="gneE36_0" departPos="5.10" departSpeed="7.72" departDelay="0.61" arrival="98.00" arrivalLane="gneE30_0" arrivalPos="27.32" arrivalSpeed="12.29" duration="97.00" routeLength="1582.47" waitingTime="26.00" waitingCount="1" stopTime="0.00" timeLoss="36.25" rerouteNo="0" devices="tripinfo_191488" vType="DEFAULT_VEHTYPE" speedFactor="0.99" vaporized=""/>
    <tripinfo id="345590" depart="2.00" departLane="gneE14_1" departPos="5.10" departSpeed="7.66" departDelay="0.77" arrival="98.00" arrivalLane="gneE23_1" arrivalPos="22.86" arrivalSpeed="12.14" duration="96.00" routeLength="1368.27" waitingTime="29.00" waitingCount="2" stopTime="0.00" timeLoss="46.57" rerouteNo="0" devices="tripinfo_345590" vType="DEFAULT_VEHTYPE" speedFactor="1.10" vaporized=""/>
    <tripinfo id="280376" depart="63.00" departLane="gneE44_1" departPos="5.10" departSpeed="2.73" departDelay="56.81" arrival="98.00" arrivalLane="gneE45_0" arrivalPos="19.67" arrivalSpeed="11.07" duration="35.00" routeLength="441.27" waitingTime="0.00" waitingCount="0" stopTime="0.00" timeLoss="15.26" rerouteNo="0" devices="tripinfo_280376" vType="DEFAULT_VEHTYPE" speedFactor="1.01" vaporized=""/>
    <tripinfo id="92911" depart="6.00" departLane="gneE41_0" departPos="5.10" departSpeed="4.60" departDelay="4.37" arrival="100.00" arrivalLane="gneE43_0" arrivalPos="19.10" arrivalSpeed="8.21" duration="94.00" routeLength="1798.44" waitingTime="0.00" waitingCount="0" stopTime="0.00" timeLoss="27.34" rerouteNo="0" devices="tripinfo_92911" vType="DEFAULT_VEHTYPE" speedFactor="1.00" vaporized=""/>
    <tripinfo id="345976" depart="10.00" departLane="gneE14_1" departPos="5.10" departSpeed="7.31" departDelay="8.36" arrival="101.00" arrivalLane="gneE23_1" arrivalPos="22.86" arrivalSpeed="10.66" duration="91.00" routeLength="1368.27" waitingTime="17.00" waitingCount="3" stopTime="0.00" timeLoss="39.23" rerouteNo="0" devices="tripinfo_345976" vType="DEFAULT_VEHTYPE" speedFactor="1.03" vaporized=""/>
    <tripinfo id="314958" depart="3.00" departLane="gneE12_1" departPos="5.10" departSpeed="9.36" departDelay="0.17" arrival="101.00" arrivalLane="gneE15_1" arrivalPos="15.59" arrivalSpeed="11.16" duration="98.00" routeLength="1380.73" waitingTime="25.00" waitingCount="1" stopTime="0.00" timeLoss="40.27" rerouteNo="0" devices="tripinfo_314958" vType="DEFAULT_VEHTYPE" speedFactor="0.95" vaporized=""/>
    <tripinfo id="307682" depart="35.00" departLane="gneE10_1" departPos="5.10" departSpeed="6.87" departDelay="30.32" arrival="101.00" arrivalLane="gneE13_0" arrivalPos="25.70" arrivalSpeed="11.09" duration="66.00" routeLength="1362.70" waitingTime="0.00" waitingCount="0" stopTime="0.00" timeLoss="10.67" rerouteNo="0" devices="tripinfo_307682" vType="DEFAULT_VEHTYPE" speedFactor="0.94" vaporized=""/>
    <tripinfo id="165830" depart="3.00" departLane="gneE29_1" departPos="5.10" departSpeed="4.35" departDelay="1.73" arrival="102.00" arrivalLane="gneE25_0" arrivalPos="16.65" arrivalSpeed="12.60" duration="99.00" routeLength="1391.10" waitingTime="33.00" waitingCount="4" stopTime="0.00" timeLoss="45.21" rerouteNo="0" devices="tripinfo_165830" vType="DEFAULT_VEHTYPE" speedFactor="0.99" vaporized=""/>
    <tripinfo id="286431" depart="5.00" departLane="edg_2_o_0" departPos="5.10" departSpeed="9.37" departDelay="0.09" arrival="102.00" arrivalLane="gneE11_1" arrivalPos="30.19" arrivalSpeed="12.71" duration="97.00" routeLength="1604.89" waitingTime="19.00" waitingCount="1" stopTime="0.00" timeLoss="36.72" rerouteNo="0" devices="tripinfo_286431" vType="DEFAULT_VEHTYPE" speedFactor="1.03" vaporized=""/>
    <tripinfo id="191217" depart="3.00" departLane="gneE36_0" departPos="5.10" departSpeed="2.35" departDelay="2.31" arrival="104.00" arrivalLane="gneE30_0" arrivalPos="27.32" arrivalSpeed="12.64" duration="101.00" routeLength="1582.47" waitingTime="25.00" waitingCount="1" stopTime="0.00" timeLoss="36.50" rerouteNo="0" devices="tripinfo_191217" vType="DEFAULT_VEHTYPE" speedFactor="0.94" vaporized=""/>
    <tripinfo id="346645" depart="12.00" departLane="gneE14_1" departPos="5.10" departSpeed="1.72" departDelay="9.10" arrival="104.00" arrivalLane="gneE23_1" arrivalPos="22.86" arrivalSpeed="11.47" duration="92.00" routeLength="1368.27" waitingTime="13.00" waitingCount="6" stopTime="0.00" timeLoss="36.48" rerouteNo="0" devices="tripinfo_346645" vType="DEFAULT_VEHTYPE" speedFactor="0.97" vaporized=""/>
    <tripinfo id="307229" depart="33.00" departLane="gneE10_0" departPos="5.10" departSpeed="2.66" departDelay="28.40" arrival="104.00" arrivalLane="gneE13_0" arrivalPos="25.70" arrivalSpeed="11.71" duration="71.00" routeLength="1362.70" waitingTime="0.00" waitingCount="0" stopTime="0.00" timeLoss="15.76" rerouteNo="0" devices="tripinfo_307229" vType="DEFAULT_VEHTYPE" speedFactor="0.94" vaporized=""/>
    <tripinfo id="286351" depart="10.00" departLane="edg_2_o_1" departPos="5.10" departSpeed="13.76" departDelay="3.13" arrival="107.00" arrivalLane="gneE11_1" arrivalPos="30.19" arrivalSpeed="13.03" duration="97.00" routeLength="1604.89" waitingTime="17.00" waitingCount="1" stopTime="0.00" timeLoss="34.29" rerouteNo="0" devices="tripinfo_286351" vType="DEFAULT_VEHTYPE" speedFactor="0.99" vaporized=""/>
    <tripinfo id="167198" depart="46.00" departLane="gneE29_0" departPos="5.10" departSpeed="0.44" departDelay="44.07" arrival="108.00" arrivalLane="gneE25_0" arrivalPos="16.65" arrivalSpeed="13.03" duration="62.00" routeLength="1391.10" waitingTime="0.00" waitingCount="0" stopTime="0.00" timeLoss="7.74" rerouteNo="0" devices="tripinfo_167198" vType="DEFAULT_VEHTYPE" speedFactor="0.97" vaporized=""/>
    <tripinfo id="314906" depart="40.00" departLane="gneE12_0" departPos="5.10" departSpeed="5.58" departDelay="33.12" arrival="109.00" arrivalLane="gneE15_1" arrivalPos="15.59" arrivalSpeed="11.78" duration="69.00" routeLength="1380.73" waitingTime="0.00" waitingCount="0" stopTime="0.00" timeLoss="18.77" rerouteNo="0" devices="tripinfo_314906" vType="DEFAULT_VEHTYPE" speedFactor="1.09" vaporized=""/>
    <tripinfo id="286190" depart="8.00" departLane="edg_2_o_0" departPos="5.10" departSpeed="7.98" departDelay="1.31" arrival="111.00" arrivalLane="gneE11_1" arrivalPos="30.19" arrivalSpeed="13.67" duration="103.00" routeLength="1604.89" waitingTime="15.00" waitingCount="1" stopTime="0.00" timeLoss="47.35" rerouteNo="0" devices="tripinfo_286190" vType="DEFAULT_VEHTYPE" speedFactor="1.11" vaporized=""/>
    <tripinfo id="217427" depart="2.00" departLane="gneE48_0" departPos="5.10" departSpeed="7.74" departDelay="1.83" arrival="112.00" arrivalLane="gneE35_0" arrivalPos="17.87" arrivalSpeed="14.55" duration="110.00" routeLength="3128.13" waitingTime="0.00" waitingCount="0" stopTime="0.00" timeLoss="8.25" rerouteNo="0" devices="tripinfo_217427" vType="DEFAULT_VEHTYPE" speedFactor="1.12" vaporized=""/>
    <tripinfo id="154456" depart="1.00" departLane="gneE26_1" departPos="5.10" departSpeed="12.03" departDelay="0.57" arrival="115.00" arrivalLane="gneE15_0" arrivalPos="15.59" arrivalSpeed="14.32" duration="114.00" routeLength="1392.54" waitingTime="53.00" waitingCount="1" stopTime="0.00" timeLoss="65.09" rerouteNo="0" devices="tripinfo_154456" vType="DEFAULT_VEHTYPE" speedFactor="1.09" vaporized=""/>
    <tripinfo id="286338" depart="16.00" departLane="edg_2_o_1" departPos="5.10" departSpeed="6.92" departDelay="2.30" arrival="118.00" arrivalLane="gneE11_1" arrivalPos="30.19" arrivalSpeed="10.44" duration="102.00" routeLength="1604.89" waitingTime="11.00" waitingCount="1" stopTime="0.00" timeLoss="29.67" rerouteNo="0" devices="tripinfo_286338" vType="DEFAULT_VEHTYPE" speedFactor="0.84" vaporized=""/>
    <tripinfo id="266624" depart="55.00" departLane="gneE38_0" departPos="5.10" departSpeed="4.43" departDelay="52.70" arrival="122.00" arrivalLane="gneE31_1" arrivalPos="11.79" arrivalSpeed="13.35" duration="67.00" routeLength="1368.85" waitingTime="3.00" waitingCount="1" stopTime="0.00" timeLoss="15.09" rerouteNo="0" devices="tripinfo_266624" vType="DEFAULT_VEHTYPE" speedFactor="0.99" vaporized=""/>
    <tripinfo id="282151" depart="50.00" departLane="gneE44_1" departPos="5.10" departSpeed="0.40" departDelay="46.70" arrival="123.00" arrivalLane="gneE37_1" arrivalPos="8.65" arrivalSpeed="11.48" duration="73.00" routeLength="1813.97" waitingTime="0.00" waitingCount="0" stopTime="0.00" timeLoss="15.91" rerouteNo="0" devices="tripinfo_282151" vType="DEFAULT_VEHTYPE" speedFactor="1.17" vaporized=""/>
    <tripinfo id="277754" depart="52.00" departLane="gneE44_0" departPos="5.10" departSpeed="1.79" departDelay="48.15" arrival="124.00" arrivalLane="gneE42_0" arrivalPos="11.30" arrivalSpeed="13.00" duration="72.00" routeLength="1813.47" waitingTime="1.00" waitingCount="1" stopTime="0.00" timeLoss="17.38" rerouteNo="0" devices="tripinfo_277754" vType="DEFAULT_VEHTYPE" speedFactor="1.26" vaporized=""/>
    <tripinfo id="188825" depart="3.00" departLane="gneE36_1" departPos="5.10" departSpeed="2.41" departDelay="2.28" arrival="125.00" arrivalLane="gneE34_0" arrivalPos="16.89" arrivalSpeed="8.92" duration="122.00" routeLength="2232.16" waitingTime="26.00" waitingCount="1" stopTime="0.00" timeLoss="42.30" rerouteNo="0" devices="tripinfo_188825" vType="DEFAULT_VEHTYPE" speedFactor="1.04" vaporized=""/>
    <tripinfo id="326748" depart="9.00" departLane="gneE18_0" departPos="5.10" departSpeed="14.09" departDelay="6.41" arrival="125.00" arrivalLane="gneE15_0" arrivalPos="15.59" arrivalSpeed="7.57" duration="116.00" routeLength="2229.57" waitingTime="22.00" waitingCount="1" stopTime="0.00" timeLoss="35.08" rerouteNo="0" devices="tripinfo_326748" vType="DEFAULT_VEHTYPE" speedFactor="1.01" vaporized=""/>
    <tripinfo id="89926" depart="13.00" departLane="gneE41_0" departPos="5.10" departSpeed="1.85" departDelay="9.20" arrival="125.00" arrivalLane="gneE45_0" arrivalPos="19.67" arrivalSpeed="10.13" duration="112.00" routeLength="2216.42" waitingTime="0.00" waitingCount="0" stopTime="0.00" timeLoss="30.00" rerouteNo="0" devices="tripinfo_89926" vType="DEFAULT_VEHTYPE" speedFactor="1.00" vaporized=""/>
    <tripinfo id="235209" depart="2.00" departLane="gneE46_0" departPos="5.10" departSpeed="10.07" departDelay="0.70" arrival="131.00" arrivalLane="gneE43_1" arrivalPos="19.10" arrivalSpeed="14.37" duration="129.00" routeLength="2043.86" waitingTime="41.00" waitingCount="1" stopTime="0.00" timeLoss="56.97" rerouteNo="0" devices="tripinfo_235209" vType="DEFAULT_VEHTYPE" speedFactor="1.06" vaporized=""/>
    <tripinfo id="70683" depart="48.00" departLane="gneE20_0" departPos="5.10" departSpeed="4.92" departDelay="47.00" arrival="133.00" arrivalLane="gneE21_1" arrivalPos="12.74" arrivalSpeed="11.35" duration="85.00" routeLength="1817.28" waitingTime="0.00" waitingCount="0" stopTime="0.00" timeLoss="10.01" rerouteNo="0" devices="tripinfo_70683" vType="DEFAULT_VEHTYPE" speedFactor="0.89" vaporized=""/>
    <tripinfo id="360075" depart="3.00" departLane="gneE14_0" departPos="5.10" departSpeed="3.96" departDelay="1.50" arrival="136.00" arrivalLane="gneE15_1" arrivalPos="15.59" arrivalSpeed="12.11" duration="133.00" routeLength="2268.38" waitingTime="27.00" waitingCount="3" stopTime="0.00" timeLoss="49.65" rerouteNo="0" devices="tripinfo_360075" vType="DEFAULT_VEHTYPE" speedFactor="1.00" vaporized=""/>
    <tripinfo id="360415" depart="9.00" departLane="gneE14_1" departPos="5.10" departSpeed="11.21" departDelay="7.37" arrival="138.00" arrivalLane="gneE15_1" arrivalPos="15.59" arrivalSpeed="11.45" duration="129.00" routeLength="2268.38" waitingTime="16.00" waitingCount="2" stopTime="0.00" timeLoss="37.25" rerouteNo="0" devices="tripinfo_360415" vType="DEFAULT_VEHTYPE" speedFactor="0.91" vaporized=""/>
    <tripinfo id="360319" depart="3.00" departLane="gneE14_1" departPos="5.10" departSpeed="3.24" departDelay="1.39" arrival="140.00" arrivalLane="gneE15_1" arrivalPos="15.59" arrivalSpeed="13.25" duration="137.00" routeLength="2268.38" waitingTime="21.00" waitingCount="4" stopTime="0.00" timeLoss="59.71" rerouteNo="0" devices="tripinfo_360319" vType="DEFAULT_VEHTYPE" speedFactor="1.08" vaporized=""/>
    <tripinfo id="288787" depart="63.00" departLane="gneE8_1" departPos="5.10" departSpeed="3.85" departDelay="40.24" arrival="140.00" arrivalLane="gneE1_0" arrivalPos="8.69" arrivalSpeed="11.40" duration="77.00" routeLength="1577.97" waitingTime="6.00" waitingCount="1" stopTime="0.00" timeLoss="20.09" rerouteNo="0" devices="tripinfo_288787" vType="DEFAULT_VEHTYPE" speedFactor="1.03" vaporized=""/>
    <tripinfo id="272373" depart="1.00" departLane="gneE38_0" departPos="5.10" departSpeed="4.43" departDelay="0.78" arrival="141.00" arrivalLane="gneE40_1" arrivalPos="27.74" arrivalSpeed="11.02" duration="140.00" routeLength="2038.04" waitingTime="41.00" waitingCount="1" stopTime="0.00" timeLoss="54.57" rerouteNo="0" devices="tripinfo_272373" vType="DEFAULT_VEHTYPE" speedFactor="0.88" vaporized=""/>
    <tripinfo id="254879" depart="71.00" departLane="gneE39_0" departPos="5.10" departSpeed="3.67" departDelay="69.66" arrival="142.00" arrivalLane="gneE45_1" arrivalPos="19.67" arrivalSpeed="15.48" duration="71.00" routeLength="1799.81" waitingTime="0.00" waitingCount="0" stopTime="0.00" timeLoss="9.93" rerouteNo="0" devices="tripinfo_254879" vType="DEFAULT_VEHTYPE" speedFactor="1.12" vaporized=""/>
    <tripinfo id="278019" depart="67.00" departLane="gneE44_1" departPos="5.10" departSpeed="9.64" departDelay="60.81" arrival="142.00" arrivalLane="gneE42_0" arrivalPos="11.30" arrivalSpeed="11.32" duration="75.00" routeLength="1813.47" waitingTime="0.00" waitingCount="0" stopTime="0.00" timeLoss="8.45" rerouteNo="0" devices="tripinfo_278019" vType="DEFAULT_VEHTYPE" speedFactor="1.03" vaporized=""/>
    <tripinfo id="253740" depart="1.00" departLane="gneE39_0" departPos="5.10" departSpeed="10.33" departDelay="0.89" arrival="144.00" arrivalLane="gneE45_0" arrivalPos="19.67" arrivalSpeed="11.80" duration="143.00" routeLength="1799.81" waitingTime="53.00" waitingCount="1" stopTime="0.00" timeLoss="64.09" rerouteNo="0" devices="tripinfo_253740" vType="DEFAULT_VEHTYPE" speedFactor="0.86" vaporized=""/>
    <tripinfo id="272703" depart="59.00" departLane="gneE38_0" departPos="5.10" departSpeed="13.72" departDelay="56.47" arrival="144.00" arrivalLane="gneE40_1" arrivalPos="27.74" arrivalSpeed="12.46" duration="85.00" routeLength="2038.04" waitingTime="0.00" waitingCount="0" stopTime="0.00" timeLoss="8.85" rerouteNo="0" devices="tripinfo_272703" vType="DEFAULT_VEHTYPE" speedFactor="0.99" vaporized=""/>
    <tripinfo id="253978" depart="67.00" departLane="gneE39_0" departPos="5.10" departSpeed="7.34" departDelay="65.91" arrival="146.00" arrivalLane="gneE45_1" arrivalPos="19.67" arrivalSpeed="13.22" duration="79.00" routeLength="1799.81" waitingTime="0.00" waitingCount="0" stopTime="0.00" timeLoss="7.91" rerouteNo="0" devices="tripinfo_253978" vType="DEFAULT_VEHTYPE" speedFactor="0.96" vaporized=""/>
    <tripinfo id="306249" depart="41.00" departLane="gneE10_1" departPos="5.10" departSpeed="8.50" departDelay="34.00" arrival="157.00" arrivalLane="gneE11_1" arrivalPos="30.19" arrivalSpeed="13.28" duration="116.00" routeLength="2262.85" waitingTime="15.00" waitingCount="1" stopTime="0.00" timeLoss="30.13" rerouteNo="0" devices="tripinfo_306249" vType="DEFAULT_VEHTYPE" speedFactor="0.99" vaporized=""/>
    <tripinfo id="256238" depart="74.00" departLane="gneE39_0" departPos="5.10" departSpeed="6.03" departDelay="72.61" arrival="163.00" arrivalLane="gneE37_1" arrivalPos="8.65" arrivalSpeed="12.85" duration="89.00" routeLength="2032.99" waitingTime="0.00" waitingCount="0" stopTime="0.00" timeLoss="8.17" rerouteNo="0" devices="tripinfo_256238" vType="DEFAULT_VEHTYPE" speedFactor="0.95" vaporized=""/>
    <tripinfo id="252235" depart="66.00" departLane="gneE39_0" departPos="5.10" departSpeed="10.43" departDelay="64.94" arrival="170.00" arrivalLane="gneE47_0" arrivalPos="13.02" arrivalSpeed="14.71" duration="104.00" routeLength="2865.91" waitingTime="0.00" waitingCount="0" stopTime="0.00" timeLoss="7.87" rerouteNo="0" devices="tripinfo_252235" vType="DEFAULT_VEHTYPE" speedFactor="1.10" vaporized=""/>
    <tripinfo id="158512" depart="3.00" departLane="gneE29_0" departPos="5.10" departSpeed="6.02" departDelay="1.79" arrival="170.00" arrivalLane="gneE23_0" arrivalPos="22.86" arrivalSpeed="11.98" duration="167.00" routeLength="2623.30" waitingTime="32.00" waitingCount="2" stopTime="0.00" timeLoss="52.69" rerouteNo="0" devices="tripinfo_158512" vType="DEFAULT_VEHTYPE" speedFactor="0.87" vaporized=""/>
    <tripinfo id="353064" depart="1.00" departLane="gneE14_0" departPos="5.10" departSpeed="11.21" departDelay="0.59" arrival="180.00" arrivalLane="gneE30_0" arrivalPos="27.32" arrivalSpeed="15.89" duration="179.00" routeLength="3938.08" waitingTime="35.00" waitingCount="1" stopTime="0.00" timeLoss="55.11" rerouteNo="0" devices="tripinfo_353064" vType="DEFAULT_VEHTYPE" speedFactor="1.18" vaporized=""/>
    <tripinfo id="357464" depart="22.00" departLane="gneE14_0" departPos="5.10" departSpeed="1.87" departDelay="18.56" arrival="185.00" arrivalLane="gneE4_0" arrivalPos="11.43" arrivalSpeed="10.69" duration="163.00" routeLength="3349.84" waitingTime="17.00" waitingCount="2" stopTime="0.00" timeLoss="42.66" rerouteNo="0" devices="tripinfo_357464" vType="DEFAULT_VEHTYPE" speedFactor="1.03" vaporized=""/>
    <tripinfo id="189709" depart="33.00" departLane="gneE36_0" departPos="5.10" departSpeed="4.60" departDelay="32.07" arrival="186.00" arrivalLane="gneE25_0" arrivalPos="16.65" arrivalSpeed="12.75" duration="153.00" routeLength="2907.82" waitingTime="26.00" waitingCount="2" stopTime="0.00" timeLoss="46.63" rerouteNo="0" devices="tripinfo_189709" vType="DEFAULT_VEHTYPE" speedFactor="1.00" vaporized=""/>
    <tripinfo id="155095" depart="64.00" departLane="gneE26_0" departPos="5.10" departSpeed="1.20" departDelay="62.55" arrival="186.00" arrivalLane="gneE15_0" arrivalPos="15.59" arrivalSpeed="12.74" duration="122.00" routeLength="1392.54" waitingTime="55.00" waitingCount="2" stopTime="0.00" timeLoss="69.68" rerouteNo="0" devices="tripinfo_155095" vType="DEFAULT_VEHTYPE" speedFactor="1.00" vaporized=""/>
    <tripinfo id="342482" depart="65.00" departLane="gneE16_0" departPos="5.10" departSpeed="3.23" departDelay="63.42" arrival="186.00" arrivalLane="gneE11_0" arrivalPos="30.19" arrivalSpeed="11.58" duration="121.00" routeLength="1389.30" waitingTime="48.00" waitingCount="2" stopTime="0.00" timeLoss="63.05" rerouteNo="0" devices="tripinfo_342482" vType="DEFAULT_VEHTYPE" speedFactor="0.91" vaporized=""/>
    <tripinfo id="289176" depart="46.00" departLane="gneE8_0" departPos="5.10" departSpeed="2.92" departDelay="39.25" arrival="186.00" arrivalLane="gneE4_1" arrivalPos="11.43" arrivalSpeed="10.43" duration="140.00" routeLength="1798.41" waitingTime="53.00" waitingCount="1" stopTime="0.00" timeLoss="69.38" rerouteNo="0" devices="tripinfo_289176" vType="DEFAULT_VEHTYPE" speedFactor="0.95" vaporized=""/>
    <tripinfo id="113754" depart="1.00" departLane="gneE33_1" departPos="5.10" departSpeed="9.09" departDelay="0.20" arrival="187.00" arrivalLane="gneE23_0" arrivalPos="22.86" arrivalSpeed="12.71" duration="186.00" routeLength="2929.21" waitingTime="58.00" waitingCount="2" stopTime="0.00" timeLoss="76.19" rerouteNo="0" devices="tripinfo_113754" vType="DEFAULT_VEHTYPE" speedFactor="0.98" vaporized=""/>
    <tripinfo id="287940" depart="53.00" departLane="gneE8_0" departPos="5.10" departSpeed="1.03" departDelay="38.44" arrival="187.00" arrivalLane="gneE19_0" arrivalPos="13.92" arrivalSpeed="7.51" duration="134.00" routeLength="2648.95" waitingTime="20.00" waitingCount="1" stopTime="0.00" timeLoss="37.48" rerouteNo="0" devices="tripinfo_287940" vType="DEFAULT_VEHTYPE" speedFactor="1.02" vaporized=""/>
    <tripinfo id="244757" depart="6.00" departLane="gneE39_0" departPos="5.10" departSpeed="0.66" departDelay="4.96" arrival="188.00" arrivalLane="gneE34_0" arrivalPos="16.89" arrivalSpeed="13.78" duration="182.00" routeLength="1388.02" waitingTime="111.00" waitingCount="2" stopTime="0.00" timeLoss="132.39" rerouteNo="0" devices="tripinfo_244757" vType="DEFAULT_VEHTYPE" speedFactor="1.06" vaporized=""/>
    <tripinfo id="178914" depart="39.00" departLane="gneE29_0" departPos="5.10" departSpeed="12.17" departDelay="37.64" arrival="188.00" arrivalLane="gneE15_0" arrivalPos="15.59" arrivalSpeed="13.79" duration="149.00" routeLength="2710.02" waitingTime="36.00" waitingCount="1" stopTime="0.00" timeLoss="52.53" rerouteNo="0" devices="tripinfo_178914" vType="DEFAULT_VEHTYPE" speedFactor="1.04" vaporized=""/>
    <tripinfo id="191770" depart="41.00" departLane="gneE36_1" departPos="5.10" departSpeed="3.34" departDelay="38.93" arrival="188.00" arrivalLane="gneE30_0" arrivalPos="27.32" arrivalSpeed="13.36" duration="147.00" routeLength="1582.47" waitingTime="73.00" waitingCount="2" stopTime="0.00" timeLoss="88.14" rerouteNo="0" devices="tripinfo_191770" vType="DEFAULT_VEHTYPE" speedFactor="1.02" vaporized=""/>
    <tripinfo id="289261" depart="51.00" departLane="gneE8_1" departPos="5.10" departSpeed="3.93" departDelay="39.09" arrival="188.00" arrivalLane="gneE4_1" arrivalPos="11.43" arrivalSpeed="7.90" duration="137.00" routeLength="1798.41" waitingTime="48.00" waitingCount="1" stopTime="0.00" timeLoss="61.53" rerouteNo="0" devices="tripinfo_289261" vType="DEFAULT_VEHTYPE" speedFactor="0.89" vaporized=""/>
    <tripinfo id="280477" depart="146.00" departLane="gneE44_1" departPos="5.10" departSpeed="2.10" departDelay="128.30" arrival="188.00" arrivalLane="gneE45_0" arrivalPos="19.67" arrivalSpeed="10.07" duration="42.00" routeLength="441.27" waitingTime="3.00" waitingCount="2" stopTime="0.00" timeLoss="19.11" rerouteNo="0" devices="tripinfo_280477" vType="DEFAULT_VEHTYPE" speedFactor="0.88" vaporized=""/>
    <tripinfo id="112657" depart="62.00" departLane="gneE33_0" departPos="5.10" departSpeed="2.56" departDelay="60.52" arrival="189.00" arrivalLane="gneE23_0" arrivalPos="22.86" arrivalSpeed="12.56" duration="127.00" routeLength="2929.21" waitingTime="2.00" waitingCount="1" stopTime="0.00" timeLoss="14.88" rerouteNo="0" devices="tripinfo_112657" vType="DEFAULT_VEHTYPE" speedFactor="0.96" vaporized=""/>
    <tripinfo id="179527" depart="41.00" departLane="gneE29_0" departPos="5.10" departSpeed="5.47" departDelay="39.24" arrival="190.00" arrivalLane="gneE15_0" arrivalPos="15.59" arrivalSpeed="12.57" duration="149.00" routeLength="2710.02" waitingTime="26.00" waitingCount="2" stopTime="0.00" timeLoss="44.28" rerouteNo="0" devices="tripinfo_179527" vType="DEFAULT_VEHTYPE" speedFactor="0.96" vaporized=""/>
    <tripinfo id="167099" depart="52.00" departLane="gneE29_0" departPos="5.10" departSpeed="1.60" departDelay="50.01" arrival="190.00" arrivalLane="gneE25_0" arrivalPos="16.65" arrivalSpeed="14.72" duration="138.00" routeLength="1391.10" waitingTime="62.00" waitingCount="3" stopTime="0.00" timeLoss="88.39" rerouteNo="0" devices="tripinfo_167099" vType="DEFAULT_VEHTYPE" speedFactor="1.06" vaporized=""/>
    <tripinfo id="245373" depart="74.00" departLane="gneE39_1" departPos="5.10" departSpeed="4.91" departDelay="72.01" arrival="190.00" arrivalLane="gneE34_0" arrivalPos="16.89" arrivalSpeed="11.09" duration="116.00" routeLength="1388.02" waitingTime="39.00" waitingCount="2" stopTime="0.00" timeLoss="53.15" rerouteNo="0" devices="tripinfo_245373" vType="DEFAULT_VEHTYPE" speedFactor="0.83" vaporized=""/>
    <tripinfo id="142642" depart="72.00" departLane="gneE26_0" departPos="5.10" departSpeed="0.74" departDelay="70.03" arrival="191.00" arrivalLane="gneE30_1" arrivalPos="27.32" arrivalSpeed="11.82" duration="119.00" routeLength="1367.38" waitingTime="43.00" waitingCount="1" stopTime="0.00" timeLoss="60.52" rerouteNo="0" devices="tripinfo_142642" vType="DEFAULT_VEHTYPE" speedFactor="0.93" vaporized=""/>
    <tripinfo id="111765" depart="69.00" departLane="gneE33_0" departPos="5.10" departSpeed="4.74" departDelay="66.30" arrival="191.00" arrivalLane="gneE23_0" arrivalPos="22.86" arrivalSpeed="17.45" duration="122.00" routeLength="2929.21" waitingTime="4.00" waitingCount="2" stopTime="0.00" timeLoss="36.67" rerouteNo="0" devices="tripinfo_111765" vType="DEFAULT_VEHTYPE" speedFactor="1.26" vaporized=""/>
    <tripinfo id="232532" depart="50.00" departLane="gneE46_0" departPos="5.10" departSpeed="1.15" departDelay="47.30" arrival="191.00" arrivalLane="gneE40_0" arrivalPos="27.74" arrivalSpeed="12.66" duration="141.00" routeLength="1824.31" waitingTime="52.00" waitingCount="1" stopTime="0.00" timeLoss="70.78" rerouteNo="0" devices="tripinfo_232532" vType="DEFAULT_VEHTYPE" speedFactor="0.97" vaporized=""/>
    <tripinfo id="92654" depart="100.00" departLane="gneE41_0" departPos="5.10" departSpeed="3.88" departDelay="90.53" arrival="191.00" arrivalLane="gneE43_0" arrivalPos="19.10" arrivalSpeed="9.78" duration="91.00" routeLength="1798.44" waitingTime="0.00" waitingCount="0" stopTime="0.00" timeLoss="30.67" rerouteNo="0" devices="tripinfo_92654" vType="DEFAULT_VEHTYPE" speedFactor="1.11" vaporized=""/>
    <tripinfo id="332597" depart="2.00" departLane="gneE16_0" departPos="5.10" departSpeed="4.73" departDelay="1.16" arrival="192.00" arrivalLane="gneE25_1" arrivalPos="16.65" arrivalSpeed="11.36" duration="190.00" routeLength="1352.69" waitingTime="121.00" waitingCount="3" stopTime="0.00" timeLoss="141.48" rerouteNo="0" devices="tripinfo_332597" vType="DEFAULT_VEHTYPE" speedFactor="1.09" vaporized=""/>
    <tripinfo id="244106" depart="76.00" departLane="gneE39_0" departPos="5.10" departSpeed="3.74" departDelay="74.00" arrival="192.00" arrivalLane="gneE34_0" arrivalPos="16.89" arrivalSpeed="11.10" duration="116.00" routeLength="1388.02" waitingTime="38.00" waitingCount="2" stopTime="0.00" timeLoss="56.60" rerouteNo="0" devices="tripinfo_244106" vType="DEFAULT_VEHTYPE" speedFactor="0.87" vaporized=""/>