<?xml version="1.0" encoding="UTF-8"?>

<!-- generated on 05/04/23 16:26:19 by Eclipse SUMO sumo Version 1.8.0
<configuration xmlns:xsi="http://www.w3.org/2001/XMLSchema-instance" xsi:noNamespaceSchemaLocation="http://sumo.dlr.de/xsd/sumoConfiguration.xsd">

    <input>
        <net-file value="43\../SiouxFalls.net.xml"/>
        <route-files value="43\SiouxFalls_043.rou.xml"/>
        <additional-files value="43\dua_dump_043.add.xml"/>
    </input>

    <output>
        <summary-output value="43\summary_043.xml"/>
        <tripinfo-output value="43\tripinfo_043.xml"/>
    </output>

    <time>
        <begin value="0.0"/>
        <end value="1500.0"/>
    </time>

    <processing>
        <route-steps value="100"/>
        <no-internal-links value="false"/>
        <time-to-teleport value="300"/>
        <time-to-teleport.highways value="0"/>
        <eager-insert value="false"/>
    </processing>

    <report>
        <verbose value="true"/>
        <no-warnings value="false"/>
        <log value="43\iteration_043.sumo.log"/>
        <no-step-log value="true"/>
    </report>

    <random_number>
        <random value="false"/>
    </random_number>

</configuration>
-->

<tripinfos xmlns:xsi="http://www.w3.org/2001/XMLSchema-instance" xsi:noNamespaceSchemaLocation="http://sumo.dlr.de/xsd/tripinfo_file.xsd">
    <tripinfo id="358070" depart="1.00" departLane="gneE14_1" departPos="5.10" departSpeed="11.21" departDelay="0.28" arrival="65.00" arrivalLane="gneE9_0" arrivalPos="14.85" arrivalSpeed="12.54" duration="64.00" routeLength="1382.19" waitingTime="2.00" waitingCount="1" stopTime="0.00" timeLoss="12.69" rerouteNo="0" devices="tripinfo_358070" vType="DEFAULT_VEHTYPE" speedFactor="1.02" vaporized=""/>
    <tripinfo id="307162" depart="4.00" departLane="gneE10_1" departPos="5.10" departSpeed="1.28" departDelay="0.27" arrival="94.00" arrivalLane="gneE13_0" arrivalPos="25.70" arrivalSpeed="10.46" duration="90.00" routeLength="1362.70" waitingTime="24.00" waitingCount="1" stopTime="0.00" timeLoss="37.77" rerouteNo="0" devices="tripinfo_307162" vType="DEFAULT_VEHTYPE" speedFactor="0.99" vaporized=""/>
    <tripinfo id="312949" depart="2.00" departLane="gneE12_0" departPos="5.10" departSpeed="10.08" departDelay="0.59" arrival="95.00" arrivalLane="gneE3_0" arrivalPos="21.26" arrivalSpeed="12.21" duration="93.00" routeLength="1591.21" waitingTime="25.00" waitingCount="1" stopTime="0.00" timeLoss="41.35" rerouteNo="0" devices="tripinfo_312949" vType="DEFAULT_VEHTYPE" speedFactor="1.16" vaporized=""/>
    <tripinfo id="314338" depart="1.00" departLane="gneE12_0" departPos="5.10" departSpeed="12.71" departDelay="0.59" arrival="96.00" arrivalLane="gneE15_1" arrivalPos="15.59" arrivalSpeed="12.32" duration="95.00" routeLength="1380.73" waitingTime="29.00" waitingCount="2" stopTime="0.00" timeLoss="45.20" rerouteNo="0" devices="tripinfo_314338" vType="DEFAULT_VEHTYPE" speedFactor="1.10" vaporized=""/>
    <tripinfo id="307795" depart="33.00" departLane="gneE10_1" departPos="5.10" departSpeed="5.13" departDelay="28.59" arrival="96.00" arrivalLane="gneE13_0" arrivalPos="25.70" arrivalSpeed="11.40" duration="63.00" routeLength="1362.70" waitingTime="0.00" waitingCount="0" stopTime="0.00" timeLoss="13.96" rerouteNo="0" devices="tripinfo_307795" vType="DEFAULT_VEHTYPE" speedFactor="1.07" vaporized=""/>
    <tripinfo id="280376" depart="61.00" departLane="gneE44_1" departPos="5.10" departSpeed="3.74" departDelay="54.81" arrival="97.00" arrivalLane="gneE45_0" arrivalPos="19.67" arrivalSpeed="8.99" duration="36.00" routeLength="441.27" waitingTime="0.00" waitingCount="0" stopTime="0.00" timeLoss="17.11" rerouteNo="0" devices="tripinfo_280376" vType="DEFAULT_VEHTYPE" speedFactor="1.01" vaporized=""/>
    <tripinfo id="191488" depart="1.00" departLane="gneE36_0" departPos="5.10" departSpeed="7.72" departDelay="0.61" arrival="98.00" arrivalLane="gneE30_0" arrivalPos="27.32" arrivalSpeed="12.81" duration="97.00" routeLength="1582.47" waitingTime="26.00" waitingCount="1" stopTime="0.00" timeLoss="36.07" rerouteNo="0" devices="tripinfo_191488" vType="DEFAULT_VEHTYPE" speedFactor="0.99" vaporized=""/>
    <tripinfo id="92705" depart="3.00" departLane="gneE41_0" departPos="5.10" departSpeed="7.67" departDelay="1.78" arrival="98.00" arrivalLane="gneE43_0" arrivalPos="19.10" arrivalSpeed="10.95" duration="95.00" routeLength="1798.44" waitingTime="0.00" waitingCount="0" stopTime="0.00" timeLoss="27.86" rerouteNo="0" devices="tripinfo_92705" vType="DEFAULT_VEHTYPE" speedFactor="1.01" vaporized=""/>
    <tripinfo id="345590" depart="2.00" departLane="gneE14_1" departPos="5.10" departSpeed="7.66" departDelay="0.77" arrival="99.00" arrivalLane="gneE23_1" arrivalPos="22.86" arrivalSpeed="10.81" duration="97.00" routeLength="1368.27" waitingTime="30.00" waitingCount="2" stopTime="0.00" timeLoss="48.64" rerouteNo="0" devices="tripinfo_345590" vType="DEFAULT_VEHTYPE" speedFactor="1.10" vaporized=""/>
    <tripinfo id="165830" depart="3.00" departLane="gneE29_1" departPos="5.10" departSpeed="4.35" departDelay="1.73" arrival="99.00" arrivalLane="gneE25_0" arrivalPos="16.65" arrivalSpeed="12.94" duration="96.00" routeLength="1391.10" waitingTime="30.00" waitingCount="3" stopTime="0.00" timeLoss="42.47" rerouteNo="0" devices="tripinfo_165830" vType="DEFAULT_VEHTYPE" speedFactor="0.99" vaporized=""/>
    <tripinfo id="286431" depart="8.00" departLane="edg_2_o_1" departPos="5.10" departSpeed="1.64" departDelay="3.09" arrival="99.00" arrivalLane="gneE11_1" arrivalPos="30.19" arrivalSpeed="13.82" duration="91.00" routeLength="1604.89" waitingTime="16.00" waitingCount="1" stopTime="0.00" timeLoss="31.60" rerouteNo="0" devices="tripinfo_286431" vType="DEFAULT_VEHTYPE" speedFactor="1.03" vaporized=""/>
    <tripinfo id="92911" depart="6.00" departLane="gneE41_0" departPos="5.10" departSpeed="4.60" departDelay="4.37" arrival="100.00" arrivalLane="gneE43_0" arrivalPos="19.10" arrivalSpeed="9.15" duration="94.00" routeLength="1798.44" waitingTime="0.00" waitingCount="0" stopTime="0.00" timeLoss="27.30" rerouteNo="0" devices="tripinfo_92911" vType="DEFAULT_VEHTYPE" speedFactor="1.00" vaporized=""/>
    <tripinfo id="307682" depart="35.00" departLane="gneE10_1" departPos="5.10" departSpeed="6.24" departDelay="30.32" arrival="100.00" arrivalLane="gneE13_0" arrivalPos="25.70" arrivalSpeed="9.72" duration="65.00" routeLength="1362.70" waitingTime="0.00" waitingCount="0" stopTime="0.00" timeLoss="9.76" rerouteNo="0" devices="tripinfo_307682" vType="DEFAULT_VEHTYPE" speedFactor="0.94" vaporized=""/>
    <tripinfo id="314958" depart="3.00" departLane="gneE12_1" departPos="5.10" departSpeed="9.36" departDelay="0.17" arrival="101.00" arrivalLane="gneE15_1" arrivalPos="15.59" arrivalSpeed="10.25" duration="98.00" routeLength="1380.73" waitingTime="25.00" waitingCount="1" stopTime="0.00" timeLoss="40.42" rerouteNo="0" devices="tripinfo_314958" vType="DEFAULT_VEHTYPE" speedFactor="0.95" vaporized=""/>
    <tripinfo id="345976" depart="10.00" departLane="gneE14_1" departPos="5.10" departSpeed="7.31" departDelay="8.36" arrival="102.00" arrivalLane="gneE23_1" arrivalPos="22.86" arrivalSpeed="12.53" duration="92.00" routeLength="1368.27" waitingTime="18.00" waitingCount="3" stopTime="0.00" timeLoss="39.40" rerouteNo="0" devices="tripinfo_345976" vType="DEFAULT_VEHTYPE" speedFactor="1.03" vaporized=""/>
    <tripinfo id="286190" depart="15.00" departLane="edg_2_o_1" departPos="5.10" departSpeed="6.97" departDelay="8.31" arrival="102.00" arrivalLane="gneE11_1" arrivalPos="30.19" arrivalSpeed="12.76" duration="87.00" routeLength="1604.89" waitingTime="7.00" waitingCount="1" stopTime="0.00" timeLoss="31.21" rerouteNo="0" devices="tripinfo_286190" vType="DEFAULT_VEHTYPE" speedFactor="1.11" vaporized=""/>
    <tripinfo id="191217" depart="3.00" departLane="gneE36_0" departPos="5.10" departSpeed="2.35" departDelay="2.31" arrival="104.00" arrivalLane="gneE30_0" arrivalPos="27.32" arrivalSpeed="12.01" duration="101.00" routeLength="1582.47" waitingTime="25.00" waitingCount="1" stopTime="0.00" timeLoss="36.49" rerouteNo="0" devices="tripinfo_191217" vType="DEFAULT_VEHTYPE" speedFactor="0.94" vaporized=""/>
    <tripinfo id="167198" depart="43.00" departLane="gneE29_1" departPos="5.10" departSpeed="3.46" departDelay="41.07" arrival="104.00" arrivalLane="gneE25_0" arrivalPos="16.65" arrivalSpeed="13.08" duration="61.00" routeLength="1391.10" waitingTime="0.00" waitingCount="0" stopTime="0.00" timeLoss="6.11" rerouteNo="0" devices="tripinfo_167198" vType="DEFAULT_VEHTYPE" speedFactor="0.97" vaporized=""/>
    <tripinfo id="346645" depart="12.00" departLane="gneE14_1" departPos="5.10" departSpeed="1.72" departDelay="9.10" arrival="104.00" arrivalLane="gneE23_1" arrivalPos="22.86" arrivalSpeed="11.00" duration="92.00" routeLength="1368.27" waitingTime="13.00" waitingCount="4" stopTime="0.00" timeLoss="36.65" rerouteNo="0" devices="tripinfo_346645" vType="DEFAULT_VEHTYPE" speedFactor="0.97" vaporized=""/>
    <tripinfo id="307229" depart="33.00" departLane="gneE10_0" departPos="5.10" departSpeed="3.68" departDelay="28.40" arrival="104.00" arrivalLane="gneE13_0" arrivalPos="25.70" arrivalSpeed="11.35" duration="71.00" routeLength="1362.70" waitingTime="0.00" waitingCount="0" stopTime="0.00" timeLoss="15.27" rerouteNo="0" devices="tripinfo_307229" vType="DEFAULT_VEHTYPE" speedFactor="0.94" vaporized=""/>
    <tripinfo id="286351" depart="15.00" departLane="edg_2_o_0" departPos="5.10" departSpeed="5.49" departDelay="8.13" arrival="104.00" arrivalLane="gneE11_1" arrivalPos="30.19" arrivalSpeed="11.89" duration="89.00" routeLength="1604.89" waitingTime="6.00" waitingCount="1" stopTime="0.00" timeLoss="27.03" rerouteNo="0" devices="tripinfo_286351" vType="DEFAULT_VEHTYPE" speedFactor="0.99" vaporized=""/>
    <tripinfo id="167099" depart="47.00" departLane="gneE29_0" departPos="5.10" departSpeed="7.83" departDelay="45.01" arrival="106.00" arrivalLane="gneE25_0" arrivalPos="16.65" arrivalSpeed="14.23" duration="59.00" routeLength="1391.10" waitingTime="0.00" waitingCount="0" stopTime="0.00" timeLoss="8.22" rerouteNo="0" devices="tripinfo_167099" vType="DEFAULT_VEHTYPE" speedFactor="1.06" vaporized=""/>
    <tripinfo id="314906" depart="40.00" departLane="gneE12_0" departPos="5.10" departSpeed="5.35" departDelay="33.12" arrival="110.00" arrivalLane="gneE15_1" arrivalPos="15.59" arrivalSpeed="12.48" duration="70.00" routeLength="1380.73" waitingTime="0.00" waitingCount="0" stopTime="0.00" timeLoss="19.94" rerouteNo="0" devices="tripinfo_314906" vType="DEFAULT_VEHTYPE" speedFactor="1.09" vaporized=""/>
    <tripinfo id="286338" depart="23.00" departLane="edg_2_o_1" departPos="5.10" departSpeed="3.97" departDelay="9.30" arrival="111.00" arrivalLane="gneE11_1" arrivalPos="30.19" arrivalSpeed="11.33" duration="88.00" routeLength="1604.89" waitingTime="0.00" waitingCount="0" stopTime="0.00" timeLoss="15.71" rerouteNo="0" devices="tripinfo_286338" vType="DEFAULT_VEHTYPE" speedFactor="0.84" vaporized=""/>
    <tripinfo id="217427" depart="2.00" departLane="gneE48_0" departPos="5.10" departSpeed="7.74" departDelay="1.83" arrival="112.00" arrivalLane="gneE35_0" arrivalPos="17.87" arrivalSpeed="14.33" duration="110.00" routeLength="3128.13" waitingTime="0.00" waitingCount="0" stopTime="0.00" timeLoss="8.25" rerouteNo="0" devices="tripinfo_217427" vType="DEFAULT_VEHTYPE" speedFactor="1.12" vaporized=""/>
    <tripinfo id="154456" depart="1.00" departLane="gneE26_1" departPos="5.10" departSpeed="12.03" departDelay="0.57" arrival="114.00" arrivalLane="gneE15_0" arrivalPos="15.59" arrivalSpeed="14.83" duration="113.00" routeLength="1392.54" waitingTime="53.00" waitingCount="1" stopTime="0.00" timeLoss="64.39" rerouteNo="0" devices="tripinfo_154456" vType="DEFAULT_VEHTYPE" speedFactor="1.09" vaporized=""/>
    <tripinfo id="191770" depart="39.00" departLane="gneE36_1" departPos="5.10" departSpeed="0.95" departDelay="36.93" arrival="115.00" arrivalLane="gneE30_0" arrivalPos="27.32" arrivalSpeed="13.72" duration="76.00" routeLength="1582.47" waitingTime="4.00" waitingCount="2" stopTime="0.00" timeLoss="17.37" rerouteNo="0" devices="tripinfo_191770" vType="DEFAULT_VEHTYPE" speedFactor="1.02" vaporized=""/>
    <tripinfo id="266624" depart="54.00" departLane="gneE38_1" departPos="5.10" departSpeed="4.43" departDelay="51.70" arrival="115.00" arrivalLane="gneE31_1" arrivalPos="11.79" arrivalSpeed="12.76" duration="61.00" routeLength="1368.85" waitingTime="0.00" waitingCount="0" stopTime="0.00" timeLoss="9.61" rerouteNo="0" devices="tripinfo_266624" vType="DEFAULT_VEHTYPE" speedFactor="0.99" vaporized=""/>
    <tripinfo id="286217" depart="35.00" departLane="edg_2_o_1" departPos="5.10" departSpeed="16.04" departDelay="7.46" arrival="117.00" arrivalLane="gneE11_1" arrivalPos="30.19" arrivalSpeed="13.51" duration="82.00" routeLength="1604.89" waitingTime="0.00" waitingCount="0" stopTime="0.00" timeLoss="29.40" rerouteNo="0" devices="tripinfo_286217" vType="DEFAULT_VEHTYPE" speedFactor="1.15" vaporized=""/>
    <tripinfo id="282151" depart="46.00" departLane="gneE44_1" departPos="5.10" departSpeed="0.35" departDelay="42.70" arrival="118.00" arrivalLane="gneE37_1" arrivalPos="8.65" arrivalSpeed="13.16" duration="72.00" routeLength="1813.97" waitingTime="0.00" waitingCount="0" stopTime="0.00" timeLoss="14.41" rerouteNo="0" devices="tripinfo_282151" vType="DEFAULT_VEHTYPE" speedFactor="1.17" vaporized=""/>
    <tripinfo id="332597" depart="2.00" departLane="gneE16_0" departPos="5.10" departSpeed="4.73" departDelay="1.16" arrival="123.00" arrivalLane="gneE25_1" arrivalPos="16.65" arrivalSpeed="11.19" duration="121.00" routeLength="1352.69" waitingTime="57.00" waitingCount="1" stopTime="0.00" timeLoss="72.05" rerouteNo="0" devices="tripinfo_332597" vType="DEFAULT_VEHTYPE" speedFactor="1.09" vaporized=""/>
    <tripinfo id="89926" depart="13.00" departLane="gneE41_0" departPos="5.10" departSpeed="1.85" departDelay="9.20" arrival="123.00" arrivalLane="gneE45_0" arrivalPos="19.67" arrivalSpeed="11.20" duration="110.00" routeLength="2216.42" waitingTime="0.00" waitingCount="0" stopTime="0.00" timeLoss="27.66" rerouteNo="0" devices="tripinfo_89926" vType="DEFAULT_VEHTYPE" speedFactor="1.00" vaporized=""/>
    <tripinfo id="326748" depart="8.00" departLane="gneE18_0" departPos="5.10" departSpeed="14.09" departDelay="5.41" arrival="125.00" arrivalLane="gneE15_0" arrivalPos="15.59" arrivalSpeed="9.16" duration="117.00" routeLength="2229.57" waitingTime="26.00" waitingCount="1" stopTime="0.00" timeLoss="35.71" rerouteNo="0" devices="tripinfo_326748" vType="DEFAULT_VEHTYPE" speedFactor="1.01" vaporized=""/>
    <tripinfo id="277754" depart="49.00" departLane="gneE44_0" departPos="5.10" departSpeed="2.74" departDelay="45.15" arrival="125.00" arrivalLane="gneE42_0" arrivalPos="11.30" arrivalSpeed="11.89" duration="76.00" routeLength="1813.47" waitingTime="3.00" waitingCount="1" stopTime="0.00" timeLoss="21.77" rerouteNo="0" devices="tripinfo_277754" vType="DEFAULT_VEHTYPE" speedFactor="1.26" vaporized=""/>
    <tripinfo id="360075" depart="3.00" departLane="gneE14_0" departPos="5.10" departSpeed="3.96" departDelay="1.50" arrival="126.00" arrivalLane="gneE15_1" arrivalPos="15.59" arrivalSpeed="12.91" duration="123.00" routeLength="2268.38" waitingTime="20.00" waitingCount="2" stopTime="0.00" timeLoss="39.73" rerouteNo="0" devices="tripinfo_360075" vType="DEFAULT_VEHTYPE" speedFactor="1.00" vaporized=""/>
    <tripinfo id="188825" depart="3.00" departLane="gneE36_1" departPos="5.10" departSpeed="2.41" departDelay="2.28" arrival="128.00" arrivalLane="gneE34_0" arrivalPos="16.89" arrivalSpeed="9.97" duration="125.00" routeLength="2232.16" waitingTime="27.00" waitingCount="2" stopTime="0.00" timeLoss="44.88" rerouteNo="0" devices="tripinfo_188825" vType="DEFAULT_VEHTYPE" speedFactor="1.04" vaporized=""/>
    <tripinfo id="360415" depart="9.00" departLane="gneE14_1" departPos="5.10" departSpeed="11.21" departDelay="7.37" arrival="129.00" arrivalLane="gneE15_1" arrivalPos="15.59" arrivalSpeed="12.06" duration="120.00" routeLength="2268.38" waitingTime="9.00" waitingCount="1" stopTime="0.00" timeLoss="28.04" rerouteNo="0" devices="tripinfo_360415" vType="DEFAULT_VEHTYPE" speedFactor="0.91" vaporized=""/>
    <tripinfo id="235209" depart="2.00" departLane="gneE46_0" departPos="5.10" departSpeed="10.07" departDelay="0.70" arrival="130.00" arrivalLane="gneE43_1" arrivalPos="19.10" arrivalSpeed="14.41" duration="128.00" routeLength="2043.86" waitingTime="41.00" waitingCount="1" stopTime="0.00" timeLoss="55.64" rerouteNo="0" devices="tripinfo_235209" vType="DEFAULT_VEHTYPE" speedFactor="1.06" vaporized=""/>
    <tripinfo id="360319" depart="3.00" departLane="gneE14_1" departPos="5.10" departSpeed="3.24" departDelay="1.39" arrival="130.00" arrivalLane="gneE15_1" arrivalPos="15.59" arrivalSpeed="14.17" duration="127.00" routeLength="2268.38" waitingTime="12.00" waitingCount="3" stopTime="0.00" timeLoss="49.46" rerouteNo="0" devices="tripinfo_360319" vType="DEFAULT_VEHTYPE" speedFactor="1.08" vaporized=""/>
    <tripinfo id="70683" depart="47.00" departLane="gneE20_0" departPos="5.10" departSpeed="0.03" departDelay="46.00" arrival="134.00" arrivalLane="gneE21_1" arrivalPos="12.74" arrivalSpeed="11.35" duration="87.00" routeLength="1817.28" waitingTime="1.00" waitingCount="1" stopTime="0.00" timeLoss="12.03" rerouteNo="0" devices="tripinfo_70683" vType="DEFAULT_VEHTYPE" speedFactor="0.89" vaporized=""/>
    <tripinfo id="272373" depart="1.00" departLane="gneE38_0" departPos="5.10" departSpeed="4.43" departDelay="0.78" arrival="140.00" arrivalLane="gneE40_1" arrivalPos="27.74" arrivalSpeed="11.76" duration="139.00" routeLength="2038.04" waitingTime="41.00" waitingCount="1" stopTime="0.00" timeLoss="53.25" rerouteNo="0" devices="tripinfo_272373" vType="DEFAULT_VEHTYPE" speedFactor="0.88" vaporized=""/>
    <tripinfo id="254879" depart="72.00" departLane="gneE39_0" departPos="5.10" departSpeed="3.92" departDelay="70.66" arrival="144.00" arrivalLane="gneE45_1" arrivalPos="19.67" arrivalSpeed="15.48" duration="72.00" routeLength="1799.81" waitingTime="0.00" waitingCount="0" stopTime="0.00" timeLoss="10.87" rerouteNo="0" devices="tripinfo_254879" vType="DEFAULT_VEHTYPE" speedFactor="1.12" vaporized=""/>
    <tripinfo id="253740" depart="1.00" departLane="gneE39_0" departPos="5.10" departSpeed="10.33" departDelay="0.89" arrival="145.00" arrivalLane="gneE45_0" arrivalPos="19.67" arrivalSpeed="10.80" duration="144.00" routeLength="1799.81" waitingTime="53.00" waitingCount="1" stopTime="0.00" timeLoss="64.52" rerouteNo="0" devices="tripinfo_253740" vType="DEFAULT_VEHTYPE" speedFactor="0.86" vaporized=""/>
    <tripinfo id="272703" depart="56.00" departLane="gneE38_1" departPos="5.10" departSpeed="13.69" departDelay="53.47" arrival="145.00" arrivalLane="gneE40_1" arrivalPos="27.74" arrivalSpeed="12.53" duration="89.00" routeLength="2038.04" waitingTime="0.00" waitingCount="0" stopTime="0.00" timeLoss="12.71" rerouteNo="0" devices="tripinfo_272703" vType="DEFAULT_VEHTYPE" speedFactor="0.99" vaporized=""/>
    <tripinfo id="278019" depart="63.00" departLane="gneE44_0" departPos="5.10" departSpeed="2.38" departDelay="56.81" arrival="145.00" arrivalLane="gneE42_0" arrivalPos="11.30" arrivalSpeed="12.07" duration="82.00" routeLength="1813.47" waitingTime="3.00" waitingCount="2" stopTime="0.00" timeLoss="16.00" rerouteNo="0" devices="tripinfo_278019" vType="DEFAULT_VEHTYPE" speedFactor="1.03" vaporized=""/>
    <tripinfo id="359978" depart="37.00" departLane="gneE14_0" departPos="5.10" departSpeed="0.59" departDelay="31.73" arrival="147.00" arrivalLane="gneE15_1" arrivalPos="15.59" arrivalSpeed="12.45" duration="110.00" routeLength="2268.38" waitingTime="3.00" waitingCount="2" stopTime="0.00" timeLoss="17.16" rerouteNo="0" devices="tripinfo_359978" vType="DEFAULT_VEHTYPE" speedFactor="0.90" vaporized=""/>
    <tripinfo id="253978" depart="67.00" departLane="gneE39_1" departPos="5.10" departSpeed="3.21" departDelay="65.91" arrival="150.00" arrivalLane="gneE45_1" arrivalPos="19.67" arrivalSpeed="12.92" duration="83.00" routeLength="1799.81" waitingTime="1.00" waitingCount="1" stopTime="0.00" timeLoss="12.24" rerouteNo="0" devices="tripinfo_253978" vType="DEFAULT_VEHTYPE" speedFactor="0.96" vaporized=""/>
    <tripinfo id="319898" depart="1.00" departLane="gneE18_1" departPos="5.10" departSpeed="13.96" departDelay="0.63" arrival="151.00" arrivalLane="gneE25_0" arrivalPos="16.65" arrivalSpeed="9.15" duration="150.00" routeLength="3535.06" waitingTime="0.00" waitingCount="0" stopTime="0.00" timeLoss="19.67" rerouteNo="0" devices="tripinfo_319898" vType="DEFAULT_VEHTYPE" speedFactor="1.01" vaporized=""/>
    <tripinfo id="306249" depart="40.00" departLane="gneE10_1" departPos="5.10" departSpeed="2.37" departDelay="33.00" arrival="157.00" arrivalLane="gneE11_0" arrivalPos="30.19" arrivalSpeed="13.31" duration="117.00" routeLength="2262.85" waitingTime="13.00" waitingCount="1" stopTime="0.00" timeLoss="31.19" rerouteNo="0" devices="tripinfo_306249" vType="DEFAULT_VEHTYPE" speedFactor="0.99" vaporized=""/>
    <tripinfo id="256238" depart="72.00" departLane="gneE39_1" departPos="5.10" departSpeed="6.04" departDelay="70.61" arrival="161.00" arrivalLane="gneE37_1" arrivalPos="8.65" arrivalSpeed="12.03" duration="89.00" routeLength="2032.99" waitingTime="0.00" waitingCount="0" stopTime="0.00" timeLoss="8.55" rerouteNo="0" devices="tripinfo_256238" vType="DEFAULT_VEHTYPE" speedFactor="0.95" vaporized=""/>
    <tripinfo id="121209" depart="78.00" departLane="gneE33_0" departPos="5.10" departSpeed="13.62" departDelay="75.01" arrival="167.00" arrivalLane="gneE35_1" arrivalPos="17.87" arrivalSpeed="12.97" duration="89.00" routeLength="2259.47" waitingTime="0.00" waitingCount="0" stopTime="0.00" timeLoss="3.81" rerouteNo="0" devices="tripinfo_121209" vType="DEFAULT_VEHTYPE" speedFactor="0.98" vaporized=""/>
    <tripinfo id="158512" depart="3.00" departLane="gneE29_0" departPos="5.10" departSpeed="6.02" departDelay="1.79" arrival="170.00" arrivalLane="gneE23_0" arrivalPos="22.86" arrivalSpeed="11.63" duration="167.00" routeLength="2623.30" waitingTime="33.00" waitingCount="2" stopTime="0.00" timeLoss="52.77" rerouteNo="0" devices="tripinfo_158512" vType="DEFAULT_VEHTYPE" speedFactor="0.87" vaporized=""/>
    <tripinfo id="252235" depart="67.00" departLane="gneE39_0" departPos="5.10" departSpeed="2.47" departDelay="65.94" arrival="172.00" arrivalLane="gneE47_1" arrivalPos="13.02" arrivalSpeed="14.36" duration="105.00" routeLength="2865.91" waitingTime="0.00" waitingCount="0" stopTime="0.00" timeLoss="8.62" rerouteNo="0" devices="tripinfo_252235" vType="DEFAULT_VEHTYPE" speedFactor="1.10" vaporized=""/>
    <tripinfo id="307139" depart="54.00" departLane="gneE10_1" departPos="5.10" departSpeed="2.36" departDelay="41.50" arrival="180.00" arrivalLane="gneE13_0" arrivalPos="25.70" arrivalSpeed="11.46" duration="126.00" routeLength="1362.70" waitingTime="66.00" waitingCount="1" stopTime="0.00" timeLoss="80.14" rerouteNo="0" devices="tripinfo_307139" vType="DEFAULT_VEHTYPE" speedFactor="1.13" vaporized=""/>
    <tripinfo id="287940" depart="57.00" departLane="gneE8_0" departPos="5.10" departSpeed="9.63" departDelay="42.44" arrival="184.00" arrivalLane="gneE19_0" arrivalPos="13.92" arrivalSpeed="10.25" duration="127.00" routeLength="2648.95" waitingTime="16.00" waitingCount="1" stopTime="0.00" timeLoss="31.23" rerouteNo="0" devices="tripinfo_287940" vType="DEFAULT_VEHTYPE" speedFactor="1.02" vaporized=""/>
    <tripinfo id="280477" depart="142.00" departLane="gneE44_0" departPos="5.10" departSpeed="2.66" departDelay="124.30" arrival="185.00" arrivalLane="gneE45_0" arrivalPos="19.67" arrivalSpeed="10.10" duration="43.00" routeLength="441.27" waitingTime="6.00" waitingCount="1" stopTime="0.00" timeLoss="20.78" rerouteNo="0" devices="tripinfo_280477" vType="DEFAULT_VEHTYPE" speedFactor="0.88" vaporized=""/>
    <tripinfo id="189709" depart="33.00" departLane="gneE36_1" departPos="5.10" departSpeed="4.85" departDelay="32.07" arrival="186.00" arrivalLane="gneE25_0" arrivalPos="16.65" arrivalSpeed="13.53" duration="153.00" routeLength="2907.82" waitingTime="23.00" waitingCount="1" stopTime="0.00" timeLoss="46.67" rerouteNo="0" devices="tripinfo_189709" vType="DEFAULT_VEHTYPE" speedFactor="1.00" vaporized=""/>
    <tripinfo id="244757" depart="6.00" departLane="gneE39_0" departPos="5.10" departSpeed="0.66" departDelay="4.96" arrival="186.00" arrivalLane="gneE34_0" arrivalPos="16.89" arrivalSpeed="13.62" duration="180.00" routeLength="1388.02" waitingTime="115.00" waitingCount="2" stopTime="0.00" timeLoss="130.43" rerouteNo="0" devices="tripinfo_244757" vType="DEFAULT_VEHTYPE" speedFactor="1.06" vaporized=""/>
    <tripinfo id="155095" depart="65.00" departLane="gneE26_0" departPos="5.10" departSpeed="4.73" departDelay="63.55" arrival="186.00" arrivalLane="gneE15_0" arrivalPos="15.59" arrivalSpeed="13.65" duration="121.00" routeLength="1392.54" waitingTime="51.00" waitingCount="1" stopTime="0.00" timeLoss="68.35" rerouteNo="0" devices="tripinfo_155095" vType="DEFAULT_VEHTYPE" speedFactor="1.00" vaporized=""/>
    <tripinfo id="342482" depart="65.00" departLane="gneE16_0" departPos="5.10" departSpeed="3.28" departDelay="63.42" arrival="186.00" arrivalLane="gneE11_0" arrivalPos="30.19" arrivalSpeed="12.10" duration="121.00" routeLength="1389.30" waitingTime="48.00" waitingCount="2" stopTime="0.00" timeLoss="62.62" rerouteNo="0" devices="tripinfo_342482" vType="DEFAULT_VEHTYPE" speedFactor="0.91" vaporized=""/>
    <tripinfo id="111765" depart="67.00" departLane="gneE33_1" departPos="5.10" departSpeed="5.54" departDelay="64.30" arrival="186.00" arrivalLane="gneE23_0" arrivalPos="22.86" arrivalSpeed="14.62" duration="119.00" routeLength="2929.21" waitingTime="10.00" waitingCount="1" stopTime="0.00" timeLoss="34.04" rerouteNo="0" devices="tripinfo_111765" vType="DEFAULT_VEHTYPE" speedFactor="1.26" vaporized=""/>
    <tripinfo id="357464" depart="23.00" departLane="gneE14_0" departPos="5.10" departSpeed="6.28" departDelay="19.56" arrival="186.00" arrivalLane="gneE4_0" arrivalPos="11.43" arrivalSpeed="11.81" duration="163.00" routeLength="3353.31" waitingTime="19.00" waitingCount="1" stopTime="0.00" timeLoss="43.01" rerouteNo="0" devices="tripinfo_357464" vType="DEFAULT_VEHTYPE" speedFactor="1.03" vaporized=""/>
    <tripinfo id="178914" depart="37.00" departLane="gneE29_1" departPos="5.10" departSpeed="0.59" departDelay="35.64" arrival="188.00" arrivalLane="gneE15_0" arrivalPos="15.59" arrivalSpeed="14.07" duration="151.00" routeLength="2710.02" waitingTime="33.00" waitingCount="1" stopTime="0.00" timeLoss="54.61" rerouteNo="0" devices="tripinfo_178914" vType="DEFAULT_VEHTYPE" speedFactor="1.04" vaporized=""/>
    <tripinfo id="232321" depart="55.00" departLane="gneE46_1" departPos="5.10" departSpeed="4.61" departDelay="50.85" arrival="188.00" arrivalLane="gneE40_0" arrivalPos="27.74" arrivalSpeed="13.19" duration="133.00" routeLength="1824.31" waitingTime="50.00" waitingCount="1" stopTime="0.00" timeLoss="65.59" rerouteNo="0" devices="tripinfo_232321" vType="DEFAULT_VEHTYPE" speedFactor="1.01" vaporized=""/>
    <tripinfo id="142642" depart="71.00" departLane="gneE26_0" departPos="5.10" departSpeed="8.00" departDelay="69.03" arrival="189.00" arrivalLane="gneE30_1" arrivalPos="27.32" arrivalSpeed="12.44" duration="118.00" routeLength="1367.38" waitingTime="44.00" waitingCount="1" stopTime="0.00" timeLoss="59.65" rerouteNo="0" devices="tripinfo_142642" vType="DEFAULT_VEHTYPE" speedFactor="0.93" vaporized=""/>
    <tripinfo id="245373" depart="74.00" departLane="gneE39_1" departPos="5.10" departSpeed="3.01" departDelay="72.01" arrival="189.00" arrivalLane="gneE34_0" arrivalPos="16.89" arrivalSpeed="11.31" duration="115.00" routeLength="1388.02" waitingTime="36.00" waitingCount="2" stopTime="0.00" timeLoss="51.69" rerouteNo="0" devices="tripinfo_245373" vType="DEFAULT_VEHTYPE" speedFactor="0.83" vaporized=""/>
    <tripinfo id="280507" depart="146.00" departLane="gneE44_1" departPos="5.10" departSpeed="1.58" departDelay="127.71" arrival="189.00" arrivalLane="gneE45_0" arrivalPos="19.67" arrivalSpeed="9.20" duration="43.00" routeLength="441.27" waitingTime="1.00" waitingCount="1" stopTime="0.00" timeLoss="17.94" rerouteNo="0" devices="tripinfo_280507" vType="DEFAULT_VEHTYPE" speedFactor="0.80" vaporized=""/>
    <tripinfo id="113754" depart="1.00" departLane="gneE33_1" departPos="5.10" departSpeed="9.09" departDelay="0.20" arrival="190.00" arrivalLane="gneE23_0" arrivalPos="22.86" arrivalSpeed="13.37" duration="189.00" routeLength="2929.21" waitingTime="60.00" waitingCount="2" stopTime="0.00" timeLoss="79.82" rerouteNo="0" devices="tripinfo_113754" vType="DEFAULT_VEHTYPE" speedFactor="0.98" vaporized=""/>
    <tripinfo id="233223" depart="3.00" departLane="gneE46_1" departPos="5.10" departSpeed="5.44" departDelay="1.40" arrival="190.00" arrivalLane="gneE40_0" arrivalPos="27.74" arrivalSpeed="11.93" duration="187.00" routeLength="1824.31" waitingTime="87.00" waitingCount="2" stopTime="0.00" timeLoss="109.66" rerouteNo="0" devices="tripinfo_233223" vType="DEFAULT_VEHTYPE" speedFactor="0.88" vaporized=""/>
    <tripinfo id="244106" depart="74.00" departLane="gneE39_0" departPos="5.10" departSpeed="3.92" departDelay="72.00" arrival="191.00" arrivalLane="gneE34_0" arrivalPos="16.89" arrivalSpeed="11.04" duration="117.00" routeLength="1388.02" waitingTime="37.00" waitingCount="3" stopTime="0.00" timeLoss="56.77" rerouteNo="0" devices="tripinfo_244106" vType="DEFAULT_VEHTYPE" speedFactor="0.87" vaporized=""/>